
                                 *****************
                                 * O   R   C   A *
                                 *****************

                                            #,                                       
                                            ###                                      
                                            ####                                     
                                            #####                                    
                                            ######                                   
                                           ########,                                 
                                     ,,################,,,,,                         
                               ,,#################################,,                 
                          ,,##########################################,,             
                       ,#########################################, ''#####,          
                    ,#############################################,,   '####,        
                  ,##################################################,,,,####,       
                ,###########''''           ''''###############################       
              ,#####''   ,,,,##########,,,,          '''####'''          '####       
            ,##' ,,,,###########################,,,                        '##       
           ' ,,###''''                  '''############,,,                           
         ,,##''                                '''############,,,,        ,,,,,,###''
      ,#''                                            '''#######################'''  
     '                                                          ''''####''''         
             ,#######,   #######,   ,#######,      ##                                
            ,#'     '#,  ##    ##  ,#'     '#,    #''#        ######   ,####,        
            ##       ##  ##   ,#'  ##            #'  '#       #        #'  '#        
            ##       ##  #######   ##           ,######,      #####,   #    #        
            '#,     ,#'  ##    ##  '#,     ,#' ,#      #,         ##   #,  ,#        
             '#######'   ##     ##  '#######'  #'      '#     #####' # '####'        



                  #######################################################
                  #                        -***-                        #
                  #          Department of theory and spectroscopy      #
                  #    Directorship and core code : Frank Neese         #
                  #        Max Planck Institute fuer Kohlenforschung    #
                  #                Kaiser Wilhelm Platz 1               #
                  #                 D-45470 Muelheim/Ruhr               #
                  #                      Germany                        #
                  #                                                     #
                  #                  All rights reserved                #
                  #                        -***-                        #
                  #######################################################


                         Program Version 5.0.1  -   Release   -


 With contributions from (in alphabetic order):
   Daniel Aravena         : Magnetic Suceptibility
   Michael Atanasov       : Ab Initio Ligand Field Theory (pilot matlab implementation)
   Alexander A. Auer      : GIAO ZORA, VPT2 properties, NMR spectrum
   Ute Becker             : Parallelization
   Giovanni Bistoni       : ED, misc. LED, open-shell LED, HFLD
   Martin Brehm           : Molecular dynamics
   Dmytro Bykov           : SCF Hessian
   Vijay G. Chilkuri      : MRCI spin determinant printing, contributions to CSF-ICE
   Dipayan Datta          : RHF DLPNO-CCSD density
   Achintya Kumar Dutta   : EOM-CC, STEOM-CC
   Dmitry Ganyushin       : Spin-Orbit,Spin-Spin,Magnetic field MRCI
   Miquel Garcia          : C-PCM and meta-GGA Hessian, CC/C-PCM, Gaussian charge scheme
   Yang Guo               : DLPNO-NEVPT2, F12-NEVPT2, CIM, IAO-localization
   Andreas Hansen         : Spin unrestricted coupled pair/coupled cluster methods
   Benjamin Helmich-Paris : MC-RPA, TRAH-SCF, COSX integrals
   Lee Huntington         : MR-EOM, pCC
   Robert Izsak           : Overlap fitted RIJCOSX, COSX-SCS-MP3, EOM
   Marcus Kettner         : VPT2
   Christian Kollmar      : KDIIS, OOCD, Brueckner-CCSD(T), CCSD density, CASPT2, CASPT2-K
   Simone Kossmann        : Meta GGA functionals, TD-DFT gradient, OOMP2, MP2 Hessian
   Martin Krupicka        : Initial AUTO-CI
   Lucas Lang             : DCDCAS
   Marvin Lechner         : AUTO-CI (C++ implementation), FIC-MRCC
   Dagmar Lenk            : GEPOL surface, SMD
   Dimitrios Liakos       : Extrapolation schemes; Compound Job, initial MDCI parallelization
   Dimitrios Manganas     : Further ROCIS development; embedding schemes
   Dimitrios Pantazis     : SARC Basis sets
   Anastasios Papadopoulos: AUTO-CI, single reference methods and gradients
   Taras Petrenko         : DFT Hessian,TD-DFT gradient, ASA, ECA, R-Raman, ABS, FL, XAS/XES, NRVS
   Peter Pinski           : DLPNO-MP2, DLPNO-MP2 Gradient
   Christoph Reimann      : Effective Core Potentials
   Marius Retegan         : Local ZFS, SOC
   Christoph Riplinger    : Optimizer, TS searches, QM/MM, DLPNO-CCSD(T), (RO)-DLPNO pert. Triples
   Tobias Risthaus        : Range-separated hybrids, TD-DFT gradient, RPA, STAB
   Michael Roemelt        : Original ROCIS implementation
   Masaaki Saitow         : Open-shell DLPNO-CCSD energy and density
   Barbara Sandhoefer     : DKH picture change effects
   Avijit Sen             : IP-ROCIS
   Kantharuban Sivalingam : CASSCF convergence, NEVPT2, FIC-MRCI
   Bernardo de Souza      : ESD, SOC TD-DFT
   Georgi Stoychev        : AutoAux, RI-MP2 NMR, DLPNO-MP2 response
   Willem Van den Heuvel  : Paramagnetic NMR
   Boris Wezisla          : Elementary symmetry handling
   Frank Wennmohs         : Technical directorship


 We gratefully acknowledge several colleagues who have allowed us to
 interface, adapt or use parts of their codes:
   Stefan Grimme, W. Hujo, H. Kruse, P. Pracht,  : VdW corrections, initial TS optimization,
                  C. Bannwarth, S. Ehlert          DFT functionals, gCP, sTDA/sTD-DF
   Ed Valeev, F. Pavosevic, A. Kumar             : LibInt (2-el integral package), F12 methods
   Garnet Chan, S. Sharma, J. Yang, R. Olivares  : DMRG
   Ulf Ekstrom                                   : XCFun DFT Library
   Mihaly Kallay                                 : mrcc  (arbitrary order and MRCC methods)
   Jiri Pittner, Ondrej Demel                    : Mk-CCSD
   Frank Weinhold                                : gennbo (NPA and NBO analysis)
   Christopher J. Cramer and Donald G. Truhlar   : smd solvation model
   Lars Goerigk                                  : TD-DFT with DH, B97 family of functionals
   V. Asgeirsson, H. Jonsson                     : NEB implementation
   FAccTs GmbH                                   : IRC, NEB, NEB-TS, DLPNO-Multilevel, CI-OPT
                                                   MM, QMMM, 2- and 3-layer-ONIOM, Crystal-QMMM,
                                                   LR-CPCM, SF, NACMEs, symmetry and pop. for TD-DFT,
                                                   nearIR, NL-DFT gradient (VV10), updates on ESD,
                                                   ML-optimized integration grids
   S Lehtola, MJT Oliveira, MAL Marques          : LibXC Library
   Liviu Ungur et al                             : ANISO software


 Your calculation uses the libint2 library for the computation of 2-el integrals
 For citations please refer to: http://libint.valeyev.net

 Your ORCA version has been built with support for libXC version: 5.1.0
 For citations please refer to: https://tddft.org/programs/libxc/

 This ORCA versions uses:
   CBLAS   interface :  Fast vector & matrix operations
   LAPACKE interface :  Fast linear algebra routines
   Shared memory     :  Shared parallel matrices


================================================================================

----- Orbital basis set information -----
Your calculation utilizes the basis: def2-SVP
   F. Weigend and R. Ahlrichs, Phys. Chem. Chem. Phys. 7, 3297 (2005).

----- AuxJ basis set information -----
Your calculation utilizes the auxiliary basis: def2/J
   F. Weigend, Phys. Chem. Chem. Phys. 8, 1057 (2006).

================================================================================
                                        WARNINGS
                       Please study these warnings very carefully!
================================================================================


WARNING: Geometry Optimization
  ===> : Switching off AutoStart
         For restart on a previous wavefunction, please use MOREAD

INFO   : the flag for use of the SHARK integral package has been found!

================================================================================
                                       INPUT FILE
================================================================================
NAME = Ethylene_Opt.inp
|  1> ! B3LYP Def2-SVP Opt
|  2> 
|  3> * xyz 0 1
|  4> H        1.1610300000      0.0660680000      1.0238850000                 
|  5> C        0.6578960000     -0.0044590000      0.0639790000                 
|  6> H        1.3351900000     -0.0830130000     -0.7814260000                 
|  7> C       -0.6578350000      0.0044580000     -0.0638470000                 
|  8> H       -1.3354850000      0.0830070000      0.7812720000                 
|  9> H       -1.1607960000     -0.0660610000     -1.0238630000                 
| 10> **                         ****END OF INPUT****
================================================================================

                       *****************************
                       * Geometry Optimization Run *
                       *****************************

Geometry optimization settings:
Update method            Update   .... BFGS
Choice of coordinates    CoordSys .... Z-matrix Internals
Initial Hessian          InHess   .... Almoef's Model

Convergence Tolerances:
Energy Change            TolE     ....  5.0000e-06 Eh
Max. Gradient            TolMAXG  ....  3.0000e-04 Eh/bohr
RMS Gradient             TolRMSG  ....  1.0000e-04 Eh/bohr
Max. Displacement        TolMAXD  ....  4.0000e-03 bohr
RMS Displacement         TolRMSD  ....  2.0000e-03 bohr
Strict Convergence                ....  False
------------------------------------------------------------------------------
                        ORCA OPTIMIZATION COORDINATE SETUP
------------------------------------------------------------------------------

The optimization will be done in new redundant internal coordinates
Making redundant internal coordinates   ...  (new redundants) done
Evaluating the initial hessian          ...  (Almloef) done
Evaluating the coordinates              ...  done
Calculating the B-matrix                .... done
Calculating the G-matrix                .... done
Diagonalizing the G-matrix              .... done
The first mode is                       ....    3
The number of degrees of freedom        ....   12

    -----------------------------------------------------------------
                    Redundant Internal Coordinates


    -----------------------------------------------------------------
         Definition                    Initial Value    Approx d2E/dq
    -----------------------------------------------------------------
      1. B(C   1,H   0)                  1.0861         0.365343   
      2. B(H   2,C   1)                  1.0861         0.365300   
      3. B(C   3,C   1)                  1.3220         0.802230   
      4. B(H   4,C   3)                  1.0861         0.365301   
      5. B(H   5,C   3)                  1.0861         0.365321   
      6. A(H   2,C   1,C   3)          123.0854         0.369667   
      7. A(H   0,C   1,H   2)          113.8143         0.292159   
      8. A(H   0,C   1,C   3)          123.1003         0.369675   
      9. A(H   4,C   3,H   5)          113.8009         0.292156   
     10. A(C   1,C   3,H   5)          123.0895         0.369671   
     11. A(C   1,C   3,H   4)          123.1095         0.369668   
     12. D(H   4,C   3,C   1,H   2)   -179.9992         0.046533   
     13. D(H   5,C   3,C   1,H   0)    179.9988         0.046533   
     14. D(H   5,C   3,C   1,H   2)     -0.0020         0.046533   
     15. D(H   4,C   3,C   1,H   0)      0.0016         0.046533   
    -----------------------------------------------------------------

Number of atoms                         .... 6
Number of degrees of freedom            .... 15

         *************************************************************
         *                GEOMETRY OPTIMIZATION CYCLE   1            *
         *************************************************************
---------------------------------
CARTESIAN COORDINATES (ANGSTROEM)
---------------------------------
  H      1.161030    0.066068    1.023885
  C      0.657896   -0.004459    0.063979
  H      1.335190   -0.083013   -0.781426
  C     -0.657835    0.004458   -0.063847
  H     -1.335485    0.083007    0.781272
  H     -1.160796   -0.066061   -1.023863

----------------------------
CARTESIAN COORDINATES (A.U.)
----------------------------
  NO LB      ZA    FRAG     MASS         X           Y           Z
   0 H     1.0000    0     1.008    2.194029    0.124850    1.934862
   1 C     6.0000    0    12.011    1.243243   -0.008426    0.120903
   2 H     1.0000    0     1.008    2.523143   -0.156872   -1.476681
   3 C     6.0000    0    12.011   -1.243128    0.008424   -0.120653
   4 H     1.0000    0     1.008   -2.523701    0.156860    1.476390
   5 H     1.0000    0     1.008   -2.193587   -0.124837   -1.934821

--------------------------------
INTERNAL COORDINATES (ANGSTROEM)
--------------------------------
 H      0   0   0     0.000000000000     0.00000000     0.00000000
 C      1   0   0     1.086065103261     0.00000000     0.00000000
 H      2   1   0     1.086097374722   113.81427898     0.00000000
 C      2   1   3     1.321955772152   123.10028916   179.99928927
 H      4   2   1     1.086096492979   123.10951376     0.00000000
 H      4   2   1     1.086081680693   123.08954967   179.99877857

---------------------------
INTERNAL COORDINATES (A.U.)
---------------------------
 H      0   0   0     0.000000000000     0.00000000     0.00000000
 C      1   0   0     2.052365608772     0.00000000     0.00000000
 H      2   1   0     2.052426592995   113.81427898     0.00000000
 C      2   1   3     2.498134370524   123.10028916   179.99928927
 H      4   2   1     2.052424926743   123.10951376     0.00000000
 H      4   2   1     2.052396935580   123.08954967   179.99877857

---------------------
BASIS SET INFORMATION
---------------------
There are 2 groups of distinct atoms

 Group   1 Type H   : 4s1p contracted to 2s1p pattern {31/1}
 Group   2 Type C   : 7s4p1d contracted to 3s2p1d pattern {511/31/1}

Atom   0H    basis set group =>   1
Atom   1C    basis set group =>   2
Atom   2H    basis set group =>   1
Atom   3C    basis set group =>   2
Atom   4H    basis set group =>   1
Atom   5H    basis set group =>   1
---------------------------------
AUXILIARY/J BASIS SET INFORMATION
---------------------------------
There are 2 groups of distinct atoms

 Group   1 Type H   : 5s2p1d contracted to 3s1p1d pattern {311/2/1}
 Group   2 Type C   : 12s5p4d2f1g contracted to 6s4p3d1f1g pattern {711111/2111/211/2/1}

Atom   0H    basis set group =>   1
Atom   1C    basis set group =>   2
Atom   2H    basis set group =>   1
Atom   3C    basis set group =>   2
Atom   4H    basis set group =>   1
Atom   5H    basis set group =>   1
------------------------------------------------------------------------------
                           ORCA GTO INTEGRAL CALCULATION
                           -- RI-GTO INTEGRALS CHOSEN --
------------------------------------------------------------------------------
------------------------------------------------------------------------------
                   ___                                                        
                  /   \      - P O W E R E D   B Y -                         
                 /     \                                                     
                 |  |  |   _    _      __       _____    __    __             
                 |  |  |  | |  | |    /  \     |  _  \  |  |  /  |          
                  \  \/   | |  | |   /    \    | | | |  |  | /  /          
                 / \  \   | |__| |  /  /\  \   | |_| |  |  |/  /          
                |  |  |   |  __  | /  /__\  \  |    /   |      \           
                |  |  |   | |  | | |   __   |  |    \   |  |\   \          
                \     /   | |  | | |  |  |  |  | |\  \  |  | \   \       
                 \___/    |_|  |_| |__|  |__|  |_| \__\ |__|  \__/        
                                                                              
                      - O R C A' S   B I G   F R I E N D -                    
                                      &                                       
                       - I N T E G R A L  F E E D E R -                       
                                                                              
 v1 FN, 2020, v2 2021                                                         
------------------------------------------------------------------------------


Reading SHARK input file Ethylene_Opt.SHARKINP.tmp ... ok
----------------------
SHARK INTEGRAL PACKAGE
----------------------

Number of atoms                             ...      6
Number of basis functions                   ...     48
Number of shells                            ...     24
Maximum angular momentum                    ...      2
Integral batch strategy                     ... SHARK/LIBINT Hybrid
RI-J (if used) integral strategy            ... SPLIT-RIJ (Revised 2003 algorithm where possible)
Printlevel                                  ...      1
Contraction scheme used                     ... SEGMENTED contraction
Coulomb Range Separation                    ... NOT USED
Exchange Range Separation                   ... NOT USED
Finite Nucleus Model                        ... NOT USED
Auxiliary Coulomb fitting basis             ... AVAILABLE
   # of basis functions in Aux-J            ...    142
   # of shells in Aux-J                     ...     50
   Maximum angular momentum in Aux-J        ...      4
Auxiliary J/K fitting basis                 ... NOT available
Auxiliary Correlation fitting basis         ... NOT available
Auxiliary 'external' fitting basis          ... NOT available
Integral threshold                          ...     2.500000e-11
Primitive cut-off                           ...     2.500000e-12
Primitive pair pre-selection threshold      ...     2.500000e-12

Calculating pre-screening integrals         ... done (  0.0 sec) Dimension = 24
Organizing shell pair data                  ... done (  0.0 sec)
Shell pair information
Total number of shell pairs                 ...       300
Shell pairs after pre-screening             ...       300
Total number of primitive shell pairs       ...      1028
Primitive shell pairs kept                  ...       936
          la=0 lb=0:    105 shell pairs
          la=1 lb=0:    112 shell pairs
          la=1 lb=1:     36 shell pairs
          la=2 lb=0:     28 shell pairs
          la=2 lb=1:     16 shell pairs
          la=2 lb=2:      3 shell pairs

Calculating one electron integrals          ... done (  0.0 sec)
Calculating RI/J V-Matrix + Cholesky decomp.... done (  0.0 sec)
Calculating Nuclear repulsion               ... done (  0.0 sec) ENN=     33.439686779751 Eh

SHARK setup successfully completed in   0.1 seconds

Maximum memory used throughout the entire GTOINT-calculation: 8.7 MB
-------------------------------------------------------------------------------
                                 ORCA SCF
-------------------------------------------------------------------------------

------------
SCF SETTINGS
------------
Hamiltonian:
 Density Functional     Method          .... DFT(GTOs)
 Exchange Functional    Exchange        .... B88
   X-Alpha parameter    XAlpha          ....  0.666667
   Becke's b parameter  XBeta           ....  0.004200
 Correlation Functional Correlation     .... LYP
 LDA part of GGA corr.  LDAOpt          .... VWN-5
 Gradients option       PostSCFGGA      .... off
 Hybrid DFT is turned on
   Fraction HF Exchange ScalHFX         ....  0.200000
   Scaling of DF-GGA-X  ScalDFX         ....  0.720000
   Scaling of DF-GGA-C  ScalDFC         ....  0.810000
   Scaling of DF-LDA-C  ScalLDAC        ....  1.000000
   Perturbative correction              ....  0.000000
   Density functional embedding theory  .... OFF
   NL short-range parameter             ....  4.800000
 RI-approximation to the Coulomb term is turned on
   Number of AuxJ basis functions       .... 142
   RIJ-COSX (HFX calculated with COS-X)).... on


General Settings:
 Integral files         IntName         .... Ethylene_Opt
 Hartree-Fock type      HFTyp           .... RHF
 Total Charge           Charge          ....    0
 Multiplicity           Mult            ....    1
 Number of Electrons    NEL             ....   16
 Basis Dimension        Dim             ....   48
 Nuclear Repulsion      ENuc            ....     33.4396867798 Eh

Convergence Acceleration:
 DIIS                   CNVDIIS         .... on
   Start iteration      DIISMaxIt       ....    12
   Startup error        DIISStart       ....  0.200000
   # of expansion vecs  DIISMaxEq       ....     5
   Bias factor          DIISBfac        ....   1.050
   Max. coefficient     DIISMaxC        ....  10.000
 Trust-Rad. Augm. Hess. CNVTRAH         .... auto
   Auto Start mean grad. ratio tolernc. ....  1.125000
   Auto Start start iteration           ....    20
   Auto Start num. interpolation iter.  ....    10
   Max. Number of Micro iterations      ....    16
   Max. Number of Macro iterations      .... Maxiter - #DIIS iter
   Number of Davidson start vectors     ....     2
   Converg. threshold I  (grad. norm)   ....   1.000e-05
   Converg. threshold II (energy diff.) ....   1.000e-08
   Grad. Scal. Fac. for Micro threshold ....   0.100
   Minimum threshold for Micro iter.    ....   0.010
   NR start threshold (gradient norm)   ....   0.001
   Initial trust radius                 ....   0.400
   Minimum AH scaling param. (alpha)    ....   1.000
   Maximum AH scaling param. (alpha)    .... 1000.000
   Orbital update algorithm             .... Taylor
   White noise on init. David. guess    .... on
   Maximum white noise                  ....   0.010
   Quad. conv. algorithm                .... NR
 SOSCF                  CNVSOSCF        .... on
   Start iteration      SOSCFMaxIt      ....   150
   Startup grad/error   SOSCFStart      ....  0.003300
 Level Shifting         CNVShift        .... on
   Level shift para.    LevelShift      ....    0.2500
   Turn off err/grad.   ShiftErr        ....    0.0010
 Zerner damping         CNVZerner       .... off
 Static damping         CNVDamp         .... on
   Fraction old density DampFac         ....    0.7000
   Max. Damping (<1)    DampMax         ....    0.9800
   Min. Damping (>=0)   DampMin         ....    0.0000
   Turn off err/grad.   DampErr         ....    0.1000
 Fernandez-Rico         CNVRico         .... off

SCF Procedure:
 Maximum # iterations   MaxIter         ....   125
 SCF integral mode      SCFMode         .... Direct
   Integral package                     .... SHARK and LIBINT hybrid scheme
 Reset frequency        DirectResetFreq ....    20
 Integral Threshold     Thresh          ....  2.500e-11 Eh
 Primitive CutOff       TCut            ....  2.500e-12 Eh

Convergence Tolerance:
 Convergence Check Mode ConvCheckMode   .... Total+1el-Energy
 Convergence forced     ConvForced      .... 0
 Energy Change          TolE            ....  1.000e-08 Eh
 1-El. energy change                    ....  1.000e-05 Eh
 Orbital Gradient       TolG            ....  1.000e-05
 Orbital Rotation angle TolX            ....  1.000e-05
 DIIS Error             TolErr          ....  5.000e-07


Diagonalization of the overlap matrix:
Smallest eigenvalue                        ... 3.846e-03
Time for diagonalization                   ...    0.137 sec
Threshold for overlap eigenvalues          ... 1.000e-08
Number of eigenvalues below threshold      ... 0
Time for construction of square roots      ...    0.002 sec
Total time needed                          ...    0.139 sec

Time for model grid setup =    0.022 sec

------------------------------
INITIAL GUESS: MODEL POTENTIAL
------------------------------
Loading Hartree-Fock densities                     ... done
Calculating cut-offs                               ... done
Initializing the effective Hamiltonian             ... done
Setting up the integral package (SHARK)            ... done
Starting the Coulomb interaction                   ... done (   0.0 sec)
Reading the grid                                   ... done
Mapping shells                                     ... done
Starting the XC term evaluation                    ... done (   0.0 sec)
  promolecular density results
     # of electrons  =     15.998111404
     EX              =    -11.423572276
     EC              =     -0.491547916
     EX+EC           =    -11.915120192
Transforming the Hamiltonian                       ... done (   0.0 sec)
Diagonalizing the Hamiltonian                      ... done (   0.0 sec)
Back transforming the eigenvectors                 ... done (   0.0 sec)
Now organizing SCF variables                       ... done
                      ------------------
                      INITIAL GUESS DONE (   0.1 sec)
                      ------------------
-------------------
DFT GRID GENERATION
-------------------

General Integration Accuracy     IntAcc      ... 4.388
Radial Grid Type                 RadialGrid  ... OptM3 with GC (2021)
Angular Grid (max. ang.)         AngularGrid ... 4 (Lebedev-302)
Angular grid pruning method      GridPruning ... 4 (adaptive)
Weight generation scheme         WeightScheme... Becke
Basis function cutoff            BFCut       ... 1.0000e-11
Integration weight cutoff        WCut        ... 1.0000e-14
Angular grids for H and He will be reduced by one unit
Partially contracted basis set               ... off
Rotationally invariant grid construction     ... off

Total number of grid points                  ...    25294
Total number of batches                      ...      400
Average number of points per batch           ...       63
Average number of grid points per atom       ...     4216
Time for grid setup =    0.099 sec

--------------------
COSX GRID GENERATION
--------------------

GRIDX 1
-------
General Integration Accuracy     IntAcc      ... 3.816
Radial Grid Type                 RadialGrid  ... OptM3 with GC (2021)
Angular Grid (max. ang.)         AngularGrid ... 1 (Lebedev-50)
Angular grid pruning method      GridPruning ... 4 (adaptive)
Weight generation scheme         WeightScheme... Becke
Basis function cutoff            BFCut       ... 1.0000e-11
Integration weight cutoff        WCut        ... 1.0000e-14
Angular grids for H and He will be reduced by one unit
Partially contracted basis set               ... on
Rotationally invariant grid construction     ... off

Total number of grid points                  ...     3286
Total number of batches                      ...       54
Average number of points per batch           ...       60
Average number of grid points per atom       ...      548
UseSFitting                                  ... on

GRIDX 2
-------
General Integration Accuracy     IntAcc      ... 4.020
Radial Grid Type                 RadialGrid  ... OptM3 with GC (2021)
Angular Grid (max. ang.)         AngularGrid ... 2 (Lebedev-110)
Angular grid pruning method      GridPruning ... 4 (adaptive)
Weight generation scheme         WeightScheme... Becke
Basis function cutoff            BFCut       ... 1.0000e-11
Integration weight cutoff        WCut        ... 1.0000e-14
Angular grids for H and He will be reduced by one unit
Partially contracted basis set               ... on
Rotationally invariant grid construction     ... off

Total number of grid points                  ...     6904
Total number of batches                      ...      110
Average number of points per batch           ...       62
Average number of grid points per atom       ...     1151
UseSFitting                                  ... on

GRIDX 3
-------
General Integration Accuracy     IntAcc      ... 4.338
Radial Grid Type                 RadialGrid  ... OptM3 with GC (2021)
Angular Grid (max. ang.)         AngularGrid ... 3 (Lebedev-194)
Angular grid pruning method      GridPruning ... 4 (adaptive)
Weight generation scheme         WeightScheme... Becke
Basis function cutoff            BFCut       ... 1.0000e-11
Integration weight cutoff        WCut        ... 1.0000e-14
Angular grids for H and He will be reduced by one unit
Partially contracted basis set               ... on
Rotationally invariant grid construction     ... off

Total number of grid points                  ...    15214
Total number of batches                      ...      240
Average number of points per batch           ...       63
Average number of grid points per atom       ...     2536
UseSFitting                                  ... on

Time for X-Grid setup             =    0.317 sec

--------------
SCF ITERATIONS
--------------
ITER       Energy         Delta-E        Max-DP      RMS-DP      [F,P]     Damp
               ***  Starting incremental Fock matrix formation  ***
  0    -78.3974994822   0.000000000000 0.06156844  0.00373639  0.1579926 0.7000
  1    -78.4317235719  -0.034224089655 0.03998177  0.00272855  0.0868063 0.7000
                               ***Turning on DIIS***
  2    -78.4465666940  -0.014843122062 0.06016807  0.00468470  0.0364129 0.0000
  3    -78.4664641183  -0.019897424372 0.02691835  0.00180158  0.0441852 0.0000
  4    -78.4724410036  -0.005976885258 0.00518389  0.00052605  0.0104893 0.0000
                      *** Initiating the SOSCF procedure ***
                           *** Shutting down DIIS ***
                      *** Re-Reading the Fockian *** 
                      *** Removing any level shift *** 
ITER      Energy       Delta-E        Grad      Rot      Max-DP    RMS-DP
  5    -78.47279026  -0.0003492572  0.000978  0.000978  0.001833  0.000179
               *** Restarting incremental Fock matrix formation ***
  6    -78.47281680  -0.0000265399  0.000428  0.000795  0.001186  0.000118
  7    -78.47281715  -0.0000003526  0.000429  0.000278  0.000521  0.000033
  8    -78.47281841  -0.0000012550  0.000016  0.000017  0.000026  0.000002
  9    -78.47281841  -0.0000000008  0.000006  0.000004  0.000004  0.000001
                 **** Energy Check signals convergence ****
              ***Rediagonalizing the Fockian in SOSCF/NRSCF***

               *****************************************************
               *                     SUCCESS                       *
               *           SCF CONVERGED AFTER  10 CYCLES          *
               *****************************************************

Old exchange energy                            =     -2.344627164 Eh
New exchange energy                            =     -2.344638520 Eh
Exchange energy change after final integration =     -0.000011356 Eh
Total energy after final integration           =    -78.472829765 Eh
Final COS-X integration done in                =     0.292 sec

----------------
TOTAL SCF ENERGY
----------------

Total Energy       :          -78.47282977 Eh           -2135.35426 eV

Components:
Nuclear Repulsion  :           33.43968678 Eh             909.94014 eV
Electronic Energy  :         -111.91251655 Eh           -3045.29439 eV
One Electron Energy:         -170.32305765 Eh           -4634.72602 eV
Two Electron Energy:           58.41054111 Eh            1589.43163 eV
Max COSX asymmetry :            0.00000093 Eh               0.00003 eV

Virial components:
Potential Energy   :         -156.02055039 Eh           -4245.53501 eV
Kinetic Energy     :           77.54772062 Eh            2110.18076 eV
Virial Ratio       :            2.01192955


DFT components:
N(Alpha)           :        7.999997699730 electrons
N(Beta)            :        7.999997699730 electrons
N(Total)           :       15.999995399460 electrons
E(X)               :       -9.290870377904 Eh       
E(C)               :       -0.591343539636 Eh       
E(XC)              :       -9.882213917540 Eh       
DFET-embed. en.    :        0.000000000000 Eh       

---------------
SCF CONVERGENCE
---------------

  Last Energy change         ...   -1.2773e-10  Tolerance :   1.0000e-08
  Last MAX-Density change    ...    5.4123e-16  Tolerance :   1.0000e-07
  Last RMS-Density change    ...    2.5426e-17  Tolerance :   5.0000e-09
  Last Orbital Gradient      ...    2.3632e-07  Tolerance :   1.0000e-05
  Last Orbital Rotation      ...    1.9553e-07  Tolerance :   1.0000e-05

             **** THE GBW FILE WAS UPDATED (Ethylene_Opt.gbw) ****
             **** DENSITY Ethylene_Opt.scfp WAS UPDATED ****
             **** ENERGY FILE WAS UPDATED (Ethylene_Opt.en.tmp) ****
             **** THE GBW FILE WAS UPDATED (Ethylene_Opt.gbw) ****
             **** DENSITY Ethylene_Opt.scfp WAS UPDATED ****
----------------
ORBITAL ENERGIES
----------------

  NO   OCC          E(Eh)            E(eV) 
   0   2.0000     -10.184570      -277.1362 
   1   2.0000     -10.183804      -277.1154 
   2   2.0000      -0.750527       -20.4229 
   3   2.0000      -0.573464       -15.6047 
   4   2.0000      -0.461870       -12.5681 
   5   2.0000      -0.425604       -11.5813 
   6   2.0000      -0.348922        -9.4947 
   7   2.0000      -0.274392        -7.4666 
   8   0.0000       0.010570         0.2876 
   9   0.0000       0.088842         2.4175 
  10   0.0000       0.106113         2.8875 
  11   0.0000       0.116781         3.1778 
  12   0.0000       0.189085         5.1453 
  13   0.0000       0.333820         9.0837 
  14   0.0000       0.394408        10.7324 
  15   0.0000       0.426676        11.6104 
  16   0.0000       0.454892        12.3783 
  17   0.0000       0.489769        13.3273 
  18   0.0000       0.558888        15.2081 
  19   0.0000       0.578373        15.7383 
  20   0.0000       0.655955        17.8494 
  21   0.0000       0.675123        18.3710 
  22   0.0000       0.679867        18.5001 
  23   0.0000       0.692951        18.8562 
  24   0.0000       0.824168        22.4267 
  25   0.0000       1.022440        27.8220 
  26   0.0000       1.183293        32.1990 
  27   0.0000       1.244914        33.8758 
  28   0.0000       1.266100        34.4523 
  29   0.0000       1.620953        44.1084 
  30   0.0000       1.634097        44.4660 
  31   0.0000       1.647558        44.8323 
  32   0.0000       1.704561        46.3835 
  33   0.0000       1.754949        47.7546 
  34   0.0000       1.756923        47.8083 
  35   0.0000       1.809508        49.2392 
  36   0.0000       1.937626        52.7255 
  37   0.0000       2.057705        55.9930 
  38   0.0000       2.167076        58.9691 
  39   0.0000       2.227289        60.6076 
  40   0.0000       2.383727        64.8645 
  41   0.0000       2.409651        65.5699 
  42   0.0000       2.506631        68.2089 
  43   0.0000       2.672779        72.7300 
  44   0.0000       2.803818        76.2958 
  45   0.0000       2.869086        78.0718 
  46   0.0000       3.038690        82.6870 
  47   0.0000       3.368907        91.6726 

                    ********************************
                    * MULLIKEN POPULATION ANALYSIS *
                    ********************************

-----------------------
MULLIKEN ATOMIC CHARGES
-----------------------
   0 H :    0.023848
   1 C :   -0.047903
   2 H :    0.024086
   3 C :   -0.047952
   4 H :    0.024084
   5 H :    0.023837
Sum of atomic charges:   -0.0000000

--------------------------------
MULLIKEN REDUCED ORBITAL CHARGES
--------------------------------
  0 H s       :     0.952441  s :     0.952441
      pz      :     0.012689  p :     0.023711
      px      :     0.006390
      py      :     0.004632
  1 C s       :     3.111833  s :     3.111833
      pz      :     0.947279  p :     2.908036
      px      :     0.975695
      py      :     0.985062
      dz2     :     0.005191  d :     0.028033
      dxz     :     0.013210
      dyz     :     0.000111
      dx2y2   :     0.004010
      dxy     :     0.005510
  2 H s       :     0.952205  s :     0.952205
      pz      :     0.010878  p :     0.023709
      px      :     0.008189
      py      :     0.004643
  3 C s       :     3.111857  s :     3.111857
      pz      :     0.947338  p :     2.908062
      px      :     0.975668
      py      :     0.985056
      dz2     :     0.005191  d :     0.028033
      dxz     :     0.013210
      dyz     :     0.000111
      dx2y2   :     0.004011
      dxy     :     0.005510
  4 H s       :     0.952207  s :     0.952207
      pz      :     0.010874  p :     0.023709
      px      :     0.008192
      py      :     0.004642
  5 H s       :     0.952453  s :     0.952453
      pz      :     0.012690  p :     0.023710
      px      :     0.006388
      py      :     0.004632


                     *******************************
                     * LOEWDIN POPULATION ANALYSIS *
                     *******************************

----------------------
LOEWDIN ATOMIC CHARGES
----------------------
   0 H :    0.022227
   1 C :   -0.044500
   2 H :    0.022278
   3 C :   -0.044499
   4 H :    0.022267
   5 H :    0.022226

-------------------------------
LOEWDIN REDUCED ORBITAL CHARGES
-------------------------------
  0 H s       :     0.910482  s :     0.910482
      pz      :     0.036369  p :     0.067291
      px      :     0.016599
      py      :     0.014322
  1 C s       :     2.882702  s :     2.882702
      pz      :     1.045927  p :     3.089537
      px      :     1.082202
      py      :     0.961409
      dz2     :     0.014000  d :     0.072260
      dxz     :     0.035169
      dyz     :     0.000252
      dx2y2   :     0.012003
      dxy     :     0.010835
  2 H s       :     0.910434  s :     0.910434
      pz      :     0.031098  p :     0.067287
      px      :     0.021837
      py      :     0.014352
  3 C s       :     2.882706  s :     2.882706
      pz      :     1.045941  p :     3.089532
      px      :     1.082188
      py      :     0.961403
      dz2     :     0.013999  d :     0.072260
      dxz     :     0.035170
      dyz     :     0.000252
      dx2y2   :     0.012004
      dxy     :     0.010835
  4 H s       :     0.910445  s :     0.910445
      pz      :     0.031087  p :     0.067288
      px      :     0.021850
      py      :     0.014351
  5 H s       :     0.910487  s :     0.910487
      pz      :     0.036371  p :     0.067287
      px      :     0.016593
      py      :     0.014322


                      *****************************
                      * MAYER POPULATION ANALYSIS *
                      *****************************

  NA   - Mulliken gross atomic population
  ZA   - Total nuclear charge
  QA   - Mulliken gross atomic charge
  VA   - Mayer's total valence
  BVA  - Mayer's bonded valence
  FA   - Mayer's free valence

  ATOM       NA         ZA         QA         VA         BVA        FA
  0 H      0.9762     1.0000     0.0238     0.9745     0.9745     0.0000
  1 C      6.0479     6.0000    -0.0479     4.0228     4.0228    -0.0000
  2 H      0.9759     1.0000     0.0241     0.9744     0.9744     0.0000
  3 C      6.0480     6.0000    -0.0480     4.0229     4.0229     0.0000
  4 H      0.9759     1.0000     0.0241     0.9744     0.9744    -0.0000
  5 H      0.9762     1.0000     0.0238     0.9745     0.9745     0.0000

  Mayer bond orders larger than 0.100000
B(  0-H ,  1-C ) :   0.9638 B(  1-C ,  2-H ) :   0.9638 B(  1-C ,  3-C ) :   2.0815 
B(  3-C ,  4-H ) :   0.9638 B(  3-C ,  5-H ) :   0.9638 

-------
TIMINGS
-------

Total SCF time: 0 days 0 hours 0 min 4 sec 

Total time                  ....       4.316 sec
Sum of individual times     ....       3.988 sec  ( 92.4%)

Fock matrix formation       ....       2.862 sec  ( 66.3%)
  Split-RI-J                ....       0.339 sec  ( 11.8% of F)
  Chain of spheres X        ....       1.515 sec  ( 52.9% of F)
  XC integration            ....       0.940 sec  ( 32.8% of F)
    Basis function eval.    ....       0.287 sec  ( 30.5% of XC)
    Density eval.           ....       0.164 sec  ( 17.4% of XC)
    XC-Functional eval.     ....       0.111 sec  ( 11.8% of XC)
    XC-Potential eval.      ....       0.153 sec  ( 16.3% of XC)
Diagonalization             ....       0.003 sec  (  0.1%)
Density matrix formation    ....       0.000 sec  (  0.0%)
Population analysis         ....       0.027 sec  (  0.6%)
Initial guess               ....       0.063 sec  (  1.5%)
Orbital Transformation      ....       0.000 sec  (  0.0%)
Orbital Orthonormalization  ....       0.000 sec  (  0.0%)
DIIS solution               ....       0.015 sec  (  0.3%)
SOSCF solution              ....       0.580 sec  ( 13.4%)
Grid generation             ....       0.438 sec  ( 10.1%)

Maximum memory used throughout the entire SCF-calculation: 45.6 MB

-------------------------   --------------------
FINAL SINGLE POINT ENERGY       -78.472829765453
-------------------------   --------------------

------------------------------------------------------------------------------
                         ORCA SCF GRADIENT CALCULATION
------------------------------------------------------------------------------

 ... reading COSX grid (gridx3)
Gradient of the Kohn-Sham DFT energy:
Kohn-Sham wavefunction type      ... RKS
Hartree-Fock exchange scaling    ...    0.200
Number of operators              ...    1
Number of atoms                  ...    6
Basis set dimensions             ...   48
Integral neglect threshold       ... 2.5e-11
Integral primitive cutoff        ... 2.5e-12
SHARK Integral package           ... ON

Nuc. rep. gradient       (SHARK) ... done (  0.0 sec)
HCore & Overlap gradient (SHARK) ... done (  0.0 sec)
RI-J gradient            (SHARK) ... done (  0.1 sec)
COSX-gradient                    ... done (  0.4 sec)
Exchange-correlation gradient    ... done

------------------
CARTESIAN GRADIENT
------------------

   1   H   :    0.000136752   -0.000627139   -0.007665696
   2   C   :   -0.010396874    0.000041680   -0.001014241
   3   H   :   -0.001338140    0.000627870    0.007534168
   4   C   :    0.010425215   -0.000041718    0.001039979
   5   H   :    0.001316340   -0.000628606   -0.007555105
   6   H   :   -0.000143369    0.000627996    0.007660933

Difference to translation invariance:
           :   -0.0000000758    0.0000000842    0.0000000374

Difference to rotation invariance:
           :    0.0000105219    0.0000474211   -0.0001060266

Norm of the cartesian gradient     ...    0.0213384529
RMS gradient                       ...    0.0050295216
MAX gradient                       ...    0.0104252154

-------
TIMINGS
-------

Total SCF gradient time            ...        0.861 sec

One electron gradient       ....       0.007 sec  (  0.8%)
RI-J Coulomb gradient       ....       0.061 sec  (  7.1%)
COSX gradient               ....       0.367 sec  ( 42.6%)
XC gradient                 ....       0.333 sec  ( 38.7%)

Maximum memory used throughout the entire SCFGRAD-calculation: 35.0 MB
------------------------------------------------------------------------------
                         ORCA GEOMETRY RELAXATION STEP
------------------------------------------------------------------------------

Reading the OPT-File                    .... done
Getting information on internals        .... done
Copying old internal coords+grads       .... done
Making the new internal coordinates     .... (new redundants).... done
Validating the new internal coordinates .... (new redundants).... done
Calculating the B-matrix                .... done
Calculating the G,G- and P matrices     .... done
Transforming gradient to internals      .... done
Projecting the internal gradient        .... done
Number of atoms                         ....   6
Number of internal coordinates          ....  15
Current Energy                          ....   -78.472829765 Eh
Current gradient norm                   ....     0.021338453 Eh/bohr
Maximum allowed component of the step   ....  0.300
Current trust radius                    ....  0.300
Evaluating the initial hessian          ....  (Almloef) done
Projecting the Hessian                  .... done
Forming the augmented Hessian           .... done
Diagonalizing the augmented Hessian     .... done
Last element of RFO vector              ....  0.998842684
Lowest eigenvalues of augmented Hessian:
 -0.000905618  0.046533489  0.046533489  0.046533494  0.317995266
Length of the computed step             ....  0.048152426
The final length of the internal step   ....  0.048152426
Converting the step to cartesian space:
 Initial RMS(Int)=    0.0124329030
Transforming coordinates:
 Iter   0:  RMS(Cart)=    0.0118365630 RMS(Int)=    0.0124223502
 Iter   1:  RMS(Cart)=    0.0000745168 RMS(Int)=    1.6223114254
 Iter   2:  RMS(Cart)=    0.0000006566 RMS(Int)=    0.0000006825
 Iter   3:  RMS(Cart)=    0.0000000031 RMS(Int)=    0.0000000034
done
Storing new coordinates                 .... done

                                .--------------------.
          ----------------------|Geometry convergence|-------------------------
          Item                value                   Tolerance       Converged
          ---------------------------------------------------------------------
          RMS gradient        0.0051265837            0.0001000000      NO
          MAX gradient        0.0116546875            0.0003000000      NO
          RMS step            0.0124329030            0.0020000000      NO
          MAX step            0.0184329445            0.0040000000      NO
          ........................................................
          Max(Bonds)      0.0098      Max(Angles)    0.91
          Max(Dihed)        0.01      Max(Improp)    0.00
          ---------------------------------------------------------------------

The optimization has not yet converged - more geometry cycles are needed


    ---------------------------------------------------------------------------
                         Redundant Internal Coordinates
                            (Angstroem and degrees)

        Definition                    Value    dE/dq     Step     New-Value
    ----------------------------------------------------------------------------
     1. B(C   1,H   0)                1.0861 -0.006751  0.0098    1.0958   
     2. B(H   2,C   1)                1.0861 -0.006746  0.0097    1.0958   
     3. B(C   3,C   1)                1.3220 -0.011655  0.0077    1.3296   
     4. B(H   4,C   3)                1.0861 -0.006747  0.0097    1.0958   
     5. B(H   5,C   3)                1.0861 -0.006745  0.0097    1.0958   
     6. A(H   2,C   1,C   3)          123.09  0.002508   -0.45    122.63   
     7. A(H   0,C   1,H   2)          113.81 -0.005031    0.90    114.72   
     8. A(H   0,C   1,C   3)          123.10  0.002523   -0.45    122.65   
     9. A(H   4,C   3,H   5)          113.80 -0.005055    0.91    114.71   
    10. A(C   1,C   3,H   5)          123.09  0.002504   -0.45    122.64   
    11. A(C   1,C   3,H   4)          123.11  0.002551   -0.46    122.65   
    12. D(H   4,C   3,C   1,H   2)   -180.00  0.000001   -0.00   -180.00   
    13. D(H   5,C   3,C   1,H   0)    180.00 -0.000001    0.00    180.00   
    14. D(H   5,C   3,C   1,H   2)     -0.00  0.000010   -0.01     -0.01   
    15. D(H   4,C   3,C   1,H   0)      0.00 -0.000010    0.01      0.01   
    ----------------------------------------------------------------------------

         *************************************************************
         *                GEOMETRY OPTIMIZATION CYCLE   2            *
         *************************************************************
---------------------------------
CARTESIAN COORDINATES (ANGSTROEM)
---------------------------------
  H      1.161652    0.067094    1.036837
  C      0.661707   -0.004435    0.064335
  H      1.338331   -0.084092   -0.793984
  C     -0.661666    0.004441   -0.064243
  H     -1.338547    0.084086    0.793876
  H     -1.161476   -0.067094   -1.036822

----------------------------
CARTESIAN COORDINATES (A.U.)
----------------------------
  NO LB      ZA    FRAG     MASS         X           Y           Z
   0 H     1.0000    0     1.008    2.195203    0.126790    1.959338
   1 C     6.0000    0    12.011    1.250446   -0.008381    0.121576
   2 H     1.0000    0     1.008    2.529079   -0.158911   -1.500413
   3 C     6.0000    0    12.011   -1.250368    0.008393   -0.121401
   4 H     1.0000    0     1.008   -2.529487    0.158899    1.500209
   5 H     1.0000    0     1.008   -2.194872   -0.126790   -1.959309

--------------------------------
INTERNAL COORDINATES (ANGSTROEM)
--------------------------------
 H      0   0   0     0.000000000000     0.00000000     0.00000000
 C      1   0   0     1.095819397354     0.00000000     0.00000000
 H      2   1   0     1.095845444452   114.71816787     0.00000000
 C      2   1   3     1.329634919468   122.64717381   179.98706395
 H      4   2   1     1.095846303948   122.65173102     0.00000000
 H      4   2   1     1.095827131761   122.63908429   179.99988729

---------------------------
INTERNAL COORDINATES (A.U.)
---------------------------
 H      0   0   0     0.000000000000     0.00000000     0.00000000
 C      1   0   0     2.070798553237     0.00000000     0.00000000
 H      2   1   0     2.070847775120   114.71816787     0.00000000
 C      2   1   3     2.512645855893   122.64717381   179.98706395
 H      4   2   1     2.070849399331   122.65173102     0.00000000
 H      4   2   1     2.070813169149   122.63908429   179.99988729

------------------------------------------------------------------------------
                   ___                                                        
                  /   \      - P O W E R E D   B Y -                         
                 /     \                                                     
                 |  |  |   _    _      __       _____    __    __             
                 |  |  |  | |  | |    /  \     |  _  \  |  |  /  |          
                  \  \/   | |  | |   /    \    | | | |  |  | /  /          
                 / \  \   | |__| |  /  /\  \   | |_| |  |  |/  /          
                |  |  |   |  __  | /  /__\  \  |    /   |      \           
                |  |  |   | |  | | |   __   |  |    \   |  |\   \          
                \     /   | |  | | |  |  |  |  | |\  \  |  | \   \       
                 \___/    |_|  |_| |__|  |__|  |_| \__\ |__|  \__/        
                                                                              
                      - O R C A' S   B I G   F R I E N D -                    
                                      &                                       
                       - I N T E G R A L  F E E D E R -                       
                                                                              
 v1 FN, 2020, v2 2021                                                         
------------------------------------------------------------------------------


Reading SHARK input file Ethylene_Opt.SHARKINP.tmp ... ok
----------------------
SHARK INTEGRAL PACKAGE
----------------------

Number of atoms                             ...      6
Number of basis functions                   ...     48
Number of shells                            ...     24
Maximum angular momentum                    ...      2
Integral batch strategy                     ... SHARK/LIBINT Hybrid
RI-J (if used) integral strategy            ... SPLIT-RIJ (Revised 2003 algorithm where possible)
Printlevel                                  ...      1
Contraction scheme used                     ... SEGMENTED contraction
Coulomb Range Separation                    ... NOT USED
Exchange Range Separation                   ... NOT USED
Finite Nucleus Model                        ... NOT USED
Auxiliary Coulomb fitting basis             ... AVAILABLE
   # of basis functions in Aux-J            ...    142
   # of shells in Aux-J                     ...     50
   Maximum angular momentum in Aux-J        ...      4
Auxiliary J/K fitting basis                 ... NOT available
Auxiliary Correlation fitting basis         ... NOT available
Auxiliary 'external' fitting basis          ... NOT available
Integral threshold                          ...     2.500000e-11
Primitive cut-off                           ...     2.500000e-12
Primitive pair pre-selection threshold      ...     2.500000e-12

Calculating pre-screening integrals         ... done (  0.0 sec) Dimension = 24
Organizing shell pair data                  ... done (  0.0 sec)
Shell pair information
Total number of shell pairs                 ...       300
Shell pairs after pre-screening             ...       300
Total number of primitive shell pairs       ...      1028
Primitive shell pairs kept                  ...       935
          la=0 lb=0:    105 shell pairs
          la=1 lb=0:    112 shell pairs
          la=1 lb=1:     36 shell pairs
          la=2 lb=0:     28 shell pairs
          la=2 lb=1:     16 shell pairs
          la=2 lb=2:      3 shell pairs

Calculating one electron integrals          ... done (  0.0 sec)
Calculating RI/J V-Matrix + Cholesky decomp.... done (  0.0 sec)
Calculating Nuclear repulsion               ... done (  0.0 sec) ENN=     33.211562051387 Eh

SHARK setup successfully completed in   0.0 seconds

Maximum memory used throughout the entire GTOINT-calculation: 8.7 MB

Diagonalization of the overlap matrix:
Smallest eigenvalue                        ... 3.960e-03
Time for diagonalization                   ...    0.000 sec
Threshold for overlap eigenvalues          ... 1.000e-08
Number of eigenvalues below threshold      ... 0
Time for construction of square roots      ...    0.001 sec
Total time needed                          ...    0.001 sec

-------------------
DFT GRID GENERATION
-------------------

General Integration Accuracy     IntAcc      ... 4.388
Radial Grid Type                 RadialGrid  ... OptM3 with GC (2021)
Angular Grid (max. ang.)         AngularGrid ... 4 (Lebedev-302)
Angular grid pruning method      GridPruning ... 4 (adaptive)
Weight generation scheme         WeightScheme... Becke
Basis function cutoff            BFCut       ... 1.0000e-11
Integration weight cutoff        WCut        ... 1.0000e-14
Angular grids for H and He will be reduced by one unit
Partially contracted basis set               ... off
Rotationally invariant grid construction     ... off

Total number of grid points                  ...    25298
Total number of batches                      ...      400
Average number of points per batch           ...       63
Average number of grid points per atom       ...     4216
Time for grid setup =    0.092 sec

--------------------
COSX GRID GENERATION
--------------------

GRIDX 1
-------
General Integration Accuracy     IntAcc      ... 3.816
Radial Grid Type                 RadialGrid  ... OptM3 with GC (2021)
Angular Grid (max. ang.)         AngularGrid ... 1 (Lebedev-50)
Angular grid pruning method      GridPruning ... 4 (adaptive)
Weight generation scheme         WeightScheme... Becke
Basis function cutoff            BFCut       ... 1.0000e-11
Integration weight cutoff        WCut        ... 1.0000e-14
Angular grids for H and He will be reduced by one unit
Partially contracted basis set               ... on
Rotationally invariant grid construction     ... off

Total number of grid points                  ...     3286
Total number of batches                      ...       54
Average number of points per batch           ...       60
Average number of grid points per atom       ...      548
UseSFitting                                  ... on

GRIDX 2
-------
General Integration Accuracy     IntAcc      ... 4.020
Radial Grid Type                 RadialGrid  ... OptM3 with GC (2021)
Angular Grid (max. ang.)         AngularGrid ... 2 (Lebedev-110)
Angular grid pruning method      GridPruning ... 4 (adaptive)
Weight generation scheme         WeightScheme... Becke
Basis function cutoff            BFCut       ... 1.0000e-11
Integration weight cutoff        WCut        ... 1.0000e-14
Angular grids for H and He will be reduced by one unit
Partially contracted basis set               ... on
Rotationally invariant grid construction     ... off

Total number of grid points                  ...     6910
Total number of batches                      ...      110
Average number of points per batch           ...       62
Average number of grid points per atom       ...     1152
UseSFitting                                  ... on

GRIDX 3
-------
General Integration Accuracy     IntAcc      ... 4.338
Radial Grid Type                 RadialGrid  ... OptM3 with GC (2021)
Angular Grid (max. ang.)         AngularGrid ... 3 (Lebedev-194)
Angular grid pruning method      GridPruning ... 4 (adaptive)
Weight generation scheme         WeightScheme... Becke
Basis function cutoff            BFCut       ... 1.0000e-11
Integration weight cutoff        WCut        ... 1.0000e-14
Angular grids for H and He will be reduced by one unit
Partially contracted basis set               ... on
Rotationally invariant grid construction     ... off

Total number of grid points                  ...    15218
Total number of batches                      ...      240
Average number of points per batch           ...       63
Average number of grid points per atom       ...     2536
UseSFitting                                  ... on

Time for X-Grid setup             =    0.094 sec

--------------
SCF ITERATIONS
--------------
ITER       Energy         Delta-E        Max-DP      RMS-DP      [F,P]     Damp
               ***  Starting incremental Fock matrix formation  ***
  0    -78.4732806699   0.000000000000 0.00093432  0.00009311  0.0037586 0.7000
                      *** Initiating the SOSCF procedure ***
                      *** Re-Reading the Fockian *** 
                      *** Removing any level shift *** 
ITER      Energy       Delta-E        Grad      Rot      Max-DP    RMS-DP
  1    -78.47330517  -0.0000244995  0.000621  0.000621  0.002545  0.000259
               *** Restarting incremental Fock matrix formation ***
  2    -78.47335502  -0.0000498485  0.000697  0.001029  0.001910  0.000119
  3    -78.47335498   0.0000000402  0.000686  0.000466  0.000779  0.000055
  4    -78.47335833  -0.0000033476  0.000020  0.000021  0.000031  0.000003
  5    -78.47335833  -0.0000000019  0.000007  0.000005  0.000007  0.000001
                 **** Energy Check signals convergence ****
              ***Rediagonalizing the Fockian in SOSCF/NRSCF***

               *****************************************************
               *                     SUCCESS                       *
               *           SCF CONVERGED AFTER   6 CYCLES          *
               *****************************************************

Old exchange energy                            =     -2.340662728 Eh
New exchange energy                            =     -2.340673459 Eh
Exchange energy change after final integration =     -0.000010730 Eh
Total energy after final integration           =    -78.473369058 Eh
Final COS-X integration done in                =     0.293 sec
Total Energy       :          -78.47336906 Eh           -2135.36893 eV
  Last Energy change         ...   -1.4012e-10  Tolerance :   1.0000e-08
  Last MAX-Density change    ...    8.8818e-16  Tolerance :   1.0000e-07
             **** THE GBW FILE WAS UPDATED (Ethylene_Opt.gbw) ****
             **** DENSITY Ethylene_Opt.scfp WAS UPDATED ****
             **** ENERGY FILE WAS UPDATED (Ethylene_Opt.en.tmp) ****
             **** THE GBW FILE WAS UPDATED (Ethylene_Opt.gbw) ****
             **** DENSITY Ethylene_Opt.scfp WAS UPDATED ****
Total SCF time: 0 days 0 hours 0 min 2 sec 

Maximum memory used throughout the entire SCF-calculation: 45.5 MB

-------------------------   --------------------
FINAL SINGLE POINT ENERGY       -78.473369057796
-------------------------   --------------------

------------------------------------------------------------------------------
                         ORCA SCF GRADIENT CALCULATION
------------------------------------------------------------------------------

 ... reading COSX grid (gridx3)
Gradient of the Kohn-Sham DFT energy:
Kohn-Sham wavefunction type      ... RKS
Hartree-Fock exchange scaling    ...    0.200
Number of operators              ...    1
Number of atoms                  ...    6
Basis set dimensions             ...   48
Integral neglect threshold       ... 2.5e-11
Integral primitive cutoff        ... 2.5e-12
SHARK Integral package           ... ON

Nuc. rep. gradient       (SHARK) ... done (  0.0 sec)
HCore & Overlap gradient (SHARK) ... done (  0.0 sec)
RI-J gradient            (SHARK) ... done (  0.1 sec)
COSX-gradient                    ... done (  0.4 sec)
Exchange-correlation gradient    ... done

------------------
CARTESIAN GRADIENT
------------------

   1   H   :    0.002236599   -0.000114261   -0.000910016
   2   C   :   -0.006755005    0.000033893   -0.000665402
   3   H   :    0.002011745    0.000068983    0.001313625
   4   C   :    0.006774404   -0.000032956    0.000681218
   5   H   :   -0.002029534   -0.000069889   -0.001327696
   6   H   :   -0.002238251    0.000114282    0.000908300

Difference to translation invariance:
           :   -0.0000000421    0.0000000520    0.0000000277

Difference to rotation invariance:
           :    0.0000090514    0.0000552778   -0.0001054805

Norm of the cartesian gradient     ...    0.0107604478
RMS gradient                       ...    0.0025362619
MAX gradient                       ...    0.0067744037

-------
TIMINGS
-------

Total SCF gradient time            ...        0.861 sec

One electron gradient       ....       0.008 sec  (  0.9%)
RI-J Coulomb gradient       ....       0.056 sec  (  6.5%)
COSX gradient               ....       0.370 sec  ( 43.0%)
XC gradient                 ....       0.338 sec  ( 39.3%)

Maximum memory used throughout the entire SCFGRAD-calculation: 35.0 MB
------------------------------------------------------------------------------
                         ORCA GEOMETRY RELAXATION STEP
------------------------------------------------------------------------------

Reading the OPT-File                    .... done
Getting information on internals        .... done
Copying old internal coords+grads       .... done
Making the new internal coordinates     .... (new redundants).... done
Validating the new internal coordinates .... (new redundants).... done
Calculating the B-matrix                .... done
Calculating the G,G- and P matrices     .... done
Transforming gradient to internals      .... done
Projecting the internal gradient        .... done
Number of atoms                         ....   6
Number of internal coordinates          ....  15
Current Energy                          ....   -78.473369058 Eh
Current gradient norm                   ....     0.010760448 Eh/bohr
Maximum allowed component of the step   ....  0.300
Current trust radius                    ....  0.300
Updating the Hessian (BFGS)             .... done
Forming the augmented Hessian           .... done
Diagonalizing the augmented Hessian     .... done
Last element of RFO vector              ....  0.999635545
Lowest eigenvalues of augmented Hessian:
 -0.000163771  0.046533367  0.046533489  0.046533489  0.212247286
Length of the computed step             ....  0.027005705
The final length of the internal step   ....  0.027005705
Converting the step to cartesian space:
 Initial RMS(Int)=    0.0069728432
Transforming coordinates:
 Iter   0:  RMS(Cart)=    0.0064749629 RMS(Int)=    1.6223253287
 Iter   1:  RMS(Cart)=    0.0000284753 RMS(Int)=    0.0000309536
 Iter   2:  RMS(Cart)=    0.0000002096 RMS(Int)=    0.0000001942
 Iter   3:  RMS(Cart)=    0.0000000016 RMS(Int)=    0.0000000018
done
Storing new coordinates                 .... done

                                .--------------------.
          ----------------------|Geometry convergence|-------------------------
          Item                value                   Tolerance       Converged
          ---------------------------------------------------------------------
          Energy change      -0.0005392923            0.0000050000      NO
          RMS gradient        0.0016260882            0.0001000000      NO
          MAX gradient        0.0033316473            0.0003000000      NO
          RMS step            0.0069728432            0.0020000000      NO
          MAX step            0.0151313292            0.0040000000      NO
          ........................................................
          Max(Bonds)      0.0031      Max(Angles)    0.87
          Max(Dihed)        0.01      Max(Improp)    0.00
          ---------------------------------------------------------------------

The optimization has not yet converged - more geometry cycles are needed


    ---------------------------------------------------------------------------
                         Redundant Internal Coordinates
                            (Angstroem and degrees)

        Definition                    Value    dE/dq     Step     New-Value
    ----------------------------------------------------------------------------
     1. B(C   1,H   0)                1.0958  0.000207  0.0009    1.0967   
     2. B(H   2,C   1)                1.0958  0.000206  0.0009    1.0968   
     3. B(C   3,C   1)                1.3296 -0.002520  0.0031    1.3327   
     4. B(H   4,C   3)                1.0958  0.000207  0.0009    1.0968   
     5. B(H   5,C   3)                1.0958  0.000209  0.0009    1.0967   
     6. A(H   2,C   1,C   3)          122.63  0.001653   -0.43    122.20   
     7. A(H   0,C   1,H   2)          114.72 -0.003316    0.86    115.58   
     8. A(H   0,C   1,C   3)          122.65  0.001663   -0.43    122.21   
     9. A(H   4,C   3,H   5)          114.71 -0.003332    0.87    115.58   
    10. A(C   1,C   3,H   5)          122.64  0.001648   -0.43    122.21   
    11. A(C   1,C   3,H   4)          122.65  0.001684   -0.44    122.21   
    12. D(H   4,C   3,C   1,H   2)    180.00 -0.000000   -0.00    180.00   
    13. D(H   5,C   3,C   1,H   0)    180.00 -0.000000    0.00    180.00   
    14. D(H   5,C   3,C   1,H   2)     -0.01  0.000003   -0.01     -0.02   
    15. D(H   4,C   3,C   1,H   0)      0.01 -0.000003    0.01      0.02   
    ----------------------------------------------------------------------------

         *************************************************************
         *                GEOMETRY OPTIMIZATION CYCLE   3            *
         *************************************************************
---------------------------------
CARTESIAN COORDINATES (ANGSTROEM)
---------------------------------
  H      1.156195    0.067548    1.041520
  C      0.663231   -0.004423    0.064474
  H      1.333932   -0.084489   -0.799599
  C     -0.663210    0.004429   -0.064419
  H     -1.334062    0.084485    0.799537
  H     -1.156087   -0.067549   -1.041513

----------------------------
CARTESIAN COORDINATES (A.U.)
----------------------------
  NO LB      ZA    FRAG     MASS         X           Y           Z
   0 H     1.0000    0     1.008    2.184893    0.127647    1.968188
   1 C     6.0000    0    12.011    1.253326   -0.008358    0.121838
   2 H     1.0000    0     1.008    2.520766   -0.159660   -1.511022
   3 C     6.0000    0    12.011   -1.253285    0.008369   -0.121735
   4 H     1.0000    0     1.008   -2.521011    0.159654    1.510905
   5 H     1.0000    0     1.008   -2.184688   -0.127650   -1.968174

--------------------------------
INTERNAL COORDINATES (ANGSTROEM)
--------------------------------
 H      0   0   0     0.000000000000     0.00000000     0.00000000
 C      1   0   0     1.096728350671     0.00000000     0.00000000
 H      2   1   0     1.096754720902   115.58093276     0.00000000
 C      2   1   3     1.332718416948   122.21470170   179.98145946
 H      4   2   1     1.096754727726   122.21432570     0.00000000
 H      4   2   1     1.096731401145   122.20952727   180.00013736

---------------------------
INTERNAL COORDINATES (A.U.)
---------------------------
 H      0   0   0     0.000000000000     0.00000000     0.00000000
 C      1   0   0     2.072516226074     0.00000000     0.00000000
 H      2   1   0     2.072566058589   115.58093276     0.00000000
 C      2   1   3     2.518472821665   122.21470170   179.98145946
 H      4   2   1     2.072566071485   122.21432570     0.00000000
 H      4   2   1     2.072521990635   122.20952727   180.00013736

------------------------------------------------------------------------------
                   ___                                                        
                  /   \      - P O W E R E D   B Y -                         
                 /     \                                                     
                 |  |  |   _    _      __       _____    __    __             
                 |  |  |  | |  | |    /  \     |  _  \  |  |  /  |          
                  \  \/   | |  | |   /    \    | | | |  |  | /  /          
                 / \  \   | |__| |  /  /\  \   | |_| |  |  |/  /          
                |  |  |   |  __  | /  /__\  \  |    /   |      \           
                |  |  |   | |  | | |   __   |  |    \   |  |\   \          
                \     /   | |  | | |  |  |  |  | |\  \  |  | \   \       
                 \___/    |_|  |_| |__|  |__|  |_| \__\ |__|  \__/        
                                                                              
                      - O R C A' S   B I G   F R I E N D -                    
                                      &                                       
                       - I N T E G R A L  F E E D E R -                       
                                                                              
 v1 FN, 2020, v2 2021                                                         
------------------------------------------------------------------------------


Reading SHARK input file Ethylene_Opt.SHARKINP.tmp ... ok
----------------------
SHARK INTEGRAL PACKAGE
----------------------

Number of atoms                             ...      6
Number of basis functions                   ...     48
Number of shells                            ...     24
Maximum angular momentum                    ...      2
Integral batch strategy                     ... SHARK/LIBINT Hybrid
RI-J (if used) integral strategy            ... SPLIT-RIJ (Revised 2003 algorithm where possible)
Printlevel                                  ...      1
Contraction scheme used                     ... SEGMENTED contraction
Coulomb Range Separation                    ... NOT USED
Exchange Range Separation                   ... NOT USED
Finite Nucleus Model                        ... NOT USED
Auxiliary Coulomb fitting basis             ... AVAILABLE
   # of basis functions in Aux-J            ...    142
   # of shells in Aux-J                     ...     50
   Maximum angular momentum in Aux-J        ...      4
Auxiliary J/K fitting basis                 ... NOT available
Auxiliary Correlation fitting basis         ... NOT available
Auxiliary 'external' fitting basis          ... NOT available
Integral threshold                          ...     2.500000e-11
Primitive cut-off                           ...     2.500000e-12
Primitive pair pre-selection threshold      ...     2.500000e-12

Calculating pre-screening integrals         ... done (  0.0 sec) Dimension = 24
Organizing shell pair data                  ... done (  0.0 sec)
Shell pair information
Total number of shell pairs                 ...       300
Shell pairs after pre-screening             ...       300
Total number of primitive shell pairs       ...      1028
Primitive shell pairs kept                  ...       935
          la=0 lb=0:    105 shell pairs
          la=1 lb=0:    112 shell pairs
          la=1 lb=1:     36 shell pairs
          la=2 lb=0:     28 shell pairs
          la=2 lb=1:     16 shell pairs
          la=2 lb=2:      3 shell pairs

Calculating one electron integrals          ... done (  0.0 sec)
Calculating RI/J V-Matrix + Cholesky decomp.... done (  0.0 sec)
Calculating Nuclear repulsion               ... done (  0.0 sec) ENN=     33.169750002282 Eh

SHARK setup successfully completed in   0.0 seconds

Maximum memory used throughout the entire GTOINT-calculation: 8.7 MB

Diagonalization of the overlap matrix:
Smallest eigenvalue                        ... 3.994e-03
Time for diagonalization                   ...    0.001 sec
Threshold for overlap eigenvalues          ... 1.000e-08
Number of eigenvalues below threshold      ... 0
Time for construction of square roots      ...    0.000 sec
Total time needed                          ...    0.001 sec

-------------------
DFT GRID GENERATION
-------------------

General Integration Accuracy     IntAcc      ... 4.388
Radial Grid Type                 RadialGrid  ... OptM3 with GC (2021)
Angular Grid (max. ang.)         AngularGrid ... 4 (Lebedev-302)
Angular grid pruning method      GridPruning ... 4 (adaptive)
Weight generation scheme         WeightScheme... Becke
Basis function cutoff            BFCut       ... 1.0000e-11
Integration weight cutoff        WCut        ... 1.0000e-14
Angular grids for H and He will be reduced by one unit
Partially contracted basis set               ... off
Rotationally invariant grid construction     ... off

Total number of grid points                  ...    25294
Total number of batches                      ...      400
Average number of points per batch           ...       63
Average number of grid points per atom       ...     4216
Time for grid setup =    0.092 sec

--------------------
COSX GRID GENERATION
--------------------

GRIDX 1
-------
General Integration Accuracy     IntAcc      ... 3.816
Radial Grid Type                 RadialGrid  ... OptM3 with GC (2021)
Angular Grid (max. ang.)         AngularGrid ... 1 (Lebedev-50)
Angular grid pruning method      GridPruning ... 4 (adaptive)
Weight generation scheme         WeightScheme... Becke
Basis function cutoff            BFCut       ... 1.0000e-11
Integration weight cutoff        WCut        ... 1.0000e-14
Angular grids for H and He will be reduced by one unit
Partially contracted basis set               ... on
Rotationally invariant grid construction     ... off

Total number of grid points                  ...     3286
Total number of batches                      ...       54
Average number of points per batch           ...       60
Average number of grid points per atom       ...      548
UseSFitting                                  ... on

GRIDX 2
-------
General Integration Accuracy     IntAcc      ... 4.020
Radial Grid Type                 RadialGrid  ... OptM3 with GC (2021)
Angular Grid (max. ang.)         AngularGrid ... 2 (Lebedev-110)
Angular grid pruning method      GridPruning ... 4 (adaptive)
Weight generation scheme         WeightScheme... Becke
Basis function cutoff            BFCut       ... 1.0000e-11
Integration weight cutoff        WCut        ... 1.0000e-14
Angular grids for H and He will be reduced by one unit
Partially contracted basis set               ... on
Rotationally invariant grid construction     ... off

Total number of grid points                  ...     6910
Total number of batches                      ...      110
Average number of points per batch           ...       62
Average number of grid points per atom       ...     1152
UseSFitting                                  ... on

GRIDX 3
-------
General Integration Accuracy     IntAcc      ... 4.338
Radial Grid Type                 RadialGrid  ... OptM3 with GC (2021)
Angular Grid (max. ang.)         AngularGrid ... 3 (Lebedev-194)
Angular grid pruning method      GridPruning ... 4 (adaptive)
Weight generation scheme         WeightScheme... Becke
Basis function cutoff            BFCut       ... 1.0000e-11
Integration weight cutoff        WCut        ... 1.0000e-14
Angular grids for H and He will be reduced by one unit
Partially contracted basis set               ... on
Rotationally invariant grid construction     ... off

Total number of grid points                  ...    15222
Total number of batches                      ...      242
Average number of points per batch           ...       62
Average number of grid points per atom       ...     2537
UseSFitting                                  ... on

Time for X-Grid setup             =    0.095 sec

--------------
SCF ITERATIONS
--------------
ITER       Energy         Delta-E        Max-DP      RMS-DP      [F,P]     Damp
               ***  Starting incremental Fock matrix formation  ***
                      *** Initiating the SOSCF procedure ***
                      *** Re-Reading the Fockian *** 
                      *** Removing any level shift *** 
ITER      Energy       Delta-E        Grad      Rot      Max-DP    RMS-DP
  0    -78.47346460 -78.4734646035  0.000998  0.000998  0.001327  0.000114
               *** Restarting incremental Fock matrix formation ***
  1    -78.47347495  -0.0000103475  0.000270  0.000502  0.000592  0.000043
  2    -78.47347550  -0.0000005488  0.000186  0.000162  0.000204  0.000017
[...]
   Fraction old density DampFac         ....    0.7000
   Max. Damping (<1)    DampMax         ....    0.9800
   Min. Damping (>=0)   DampMin         ....    0.0000
   Turn off err/grad.   DampErr         ....    0.1000
 Fernandez-Rico         CNVRico         .... off

SCF Procedure:
 Maximum # iterations   MaxIter         ....   125
 SCF integral mode      SCFMode         .... Direct
   Integral package                     .... SHARK and LIBINT hybrid scheme
 Reset frequency        DirectResetFreq ....    20
 Integral Threshold     Thresh          ....  2.500e-11 Eh
 Primitive CutOff       TCut            ....  2.500e-12 Eh

Convergence Tolerance:
 Convergence Check Mode ConvCheckMode   .... Total+1el-Energy
 Convergence forced     ConvForced      .... 0
 Energy Change          TolE            ....  1.000e-08 Eh
 1-El. energy change                    ....  1.000e-05 Eh
 Orbital Gradient       TolG            ....  1.000e-05
 Orbital Rotation angle TolX            ....  1.000e-05
 DIIS Error             TolErr          ....  5.000e-07


Diagonalization of the overlap matrix:
Smallest eigenvalue                        ... 3.985e-03
Time for diagonalization                   ...    0.000 sec
Threshold for overlap eigenvalues          ... 1.000e-08
Number of eigenvalues below threshold      ... 0
Time for construction of square roots      ...    0.001 sec
Total time needed                          ...    0.001 sec

---------------------
INITIAL GUESS: MOREAD
---------------------
Guess MOs are being read from file: Ethylene_Opt.gbw
Input Geometry matches current geometry (good)
Input basis set matches current basis set (good)
MOs were renormalized
MOs were reorthogonalized (Cholesky)
                      ------------------
                      INITIAL GUESS DONE (   0.0 sec)
                      ------------------
-------------------
DFT GRID GENERATION
-------------------

General Integration Accuracy     IntAcc      ... 4.388
Radial Grid Type                 RadialGrid  ... OptM3 with GC (2021)
Angular Grid (max. ang.)         AngularGrid ... 4 (Lebedev-302)
Angular grid pruning method      GridPruning ... 4 (adaptive)
Weight generation scheme         WeightScheme... Becke
Basis function cutoff            BFCut       ... 1.0000e-11
Integration weight cutoff        WCut        ... 1.0000e-14
Angular grids for H and He will be reduced by one unit
Partially contracted basis set               ... off
Rotationally invariant grid construction     ... off

Total number of grid points                  ...    25294
Total number of batches                      ...      400
Average number of points per batch           ...       63
Average number of grid points per atom       ...     4216
Time for grid setup =    0.095 sec

--------------------
COSX GRID GENERATION
--------------------

GRIDX 1
-------
General Integration Accuracy     IntAcc      ... 3.816
Radial Grid Type                 RadialGrid  ... OptM3 with GC (2021)
Angular Grid (max. ang.)         AngularGrid ... 1 (Lebedev-50)
Angular grid pruning method      GridPruning ... 4 (adaptive)
Weight generation scheme         WeightScheme... Becke
Basis function cutoff            BFCut       ... 1.0000e-11
Integration weight cutoff        WCut        ... 1.0000e-14
Angular grids for H and He will be reduced by one unit
Partially contracted basis set               ... on
Rotationally invariant grid construction     ... off

Total number of grid points                  ...     3286
Total number of batches                      ...       54
Average number of points per batch           ...       60
Average number of grid points per atom       ...      548
UseSFitting                                  ... on

GRIDX 2
-------
General Integration Accuracy     IntAcc      ... 4.020
Radial Grid Type                 RadialGrid  ... OptM3 with GC (2021)
Angular Grid (max. ang.)         AngularGrid ... 2 (Lebedev-110)
Angular grid pruning method      GridPruning ... 4 (adaptive)
Weight generation scheme         WeightScheme... Becke
Basis function cutoff            BFCut       ... 1.0000e-11
Integration weight cutoff        WCut        ... 1.0000e-14
Angular grids for H and He will be reduced by one unit
Partially contracted basis set               ... on
Rotationally invariant grid construction     ... off

Total number of grid points                  ...     6910
Total number of batches                      ...      110
Average number of points per batch           ...       62
Average number of grid points per atom       ...     1152
UseSFitting                                  ... on

GRIDX 3
-------
General Integration Accuracy     IntAcc      ... 4.338
Radial Grid Type                 RadialGrid  ... OptM3 with GC (2021)
Angular Grid (max. ang.)         AngularGrid ... 3 (Lebedev-194)
Angular grid pruning method      GridPruning ... 4 (adaptive)
Weight generation scheme         WeightScheme... Becke
Basis function cutoff            BFCut       ... 1.0000e-11
Integration weight cutoff        WCut        ... 1.0000e-14
Angular grids for H and He will be reduced by one unit
Partially contracted basis set               ... on
Rotationally invariant grid construction     ... off

Total number of grid points                  ...    15222
Total number of batches                      ...      242
Average number of points per batch           ...       62
Average number of grid points per atom       ...     2537
UseSFitting                                  ... on

Time for X-Grid setup             =    0.092 sec

--------------
SCF ITERATIONS
--------------
ITER       Energy         Delta-E        Max-DP      RMS-DP      [F,P]     Damp
               ***  Starting incremental Fock matrix formation  ***
                      *** Initiating the SOSCF procedure ***
                      *** Re-Reading the Fockian *** 
                      *** Removing any level shift *** 
ITER      Energy       Delta-E        Grad      Rot      Max-DP    RMS-DP
  0    -78.47352507 -78.4735250702  0.000036  0.000036  0.000053  0.000004
               *** Restarting incremental Fock matrix formation ***
  1    -78.47352508  -0.0000000097  0.000011  0.000019  0.000043  0.000002
  2    -78.47352508  -0.0000000009  0.000012  0.000008  0.000015  0.000001
                  ***Gradient check signals convergence***
              ***Rediagonalizing the Fockian in SOSCF/NRSCF***

               *****************************************************
               *                     SUCCESS                       *
               *           SCF CONVERGED AFTER   3 CYCLES          *
               *****************************************************

Old exchange energy                            =     -2.340521207 Eh
New exchange energy                            =     -2.340530622 Eh
Exchange energy change after final integration =     -0.000009415 Eh
Total energy after final integration           =    -78.473534497 Eh
Final COS-X integration done in                =     0.301 sec

----------------
TOTAL SCF ENERGY
----------------

Total Energy       :          -78.47353450 Eh           -2135.37343 eV

Components:
Nuclear Repulsion  :           33.19958200 Eh             903.40655 eV
Electronic Energy  :         -111.67311650 Eh           -3038.77999 eV
One Electron Energy:         -169.87066003 Eh           -4622.41566 eV
Two Electron Energy:           58.19754353 Eh            1583.63567 eV
Max COSX asymmetry :            0.00000096 Eh               0.00003 eV

Virial components:
Potential Energy   :         -155.94821308 Eh           -4243.56662 eV
Kinetic Energy     :           77.47467858 Eh            2108.19318 eV
Virial Ratio       :            2.01289268


DFT components:
N(Alpha)           :        7.999997475138 electrons
N(Beta)            :        7.999997475138 electrons
N(Total)           :       15.999994950277 electrons
E(X)               :       -9.276276359858 Eh       
E(C)               :       -0.590454913856 Eh       
E(XC)              :       -9.866731273714 Eh       
DFET-embed. en.    :        0.000000000000 Eh       

---------------
SCF CONVERGENCE
---------------

  Last Energy change         ...   -8.7709e-10  Tolerance :   1.0000e-08
  Last MAX-Density change    ...    1.3323e-15  Tolerance :   1.0000e-07
  Last RMS-Density change    ...    4.4925e-17  Tolerance :   5.0000e-09
  Last Orbital Gradient      ...    1.5865e-06  Tolerance :   1.0000e-05
  Last Orbital Rotation      ...    5.2551e-06  Tolerance :   1.0000e-05

             **** THE GBW FILE WAS UPDATED (Ethylene_Opt.gbw) ****
             **** DENSITY Ethylene_Opt.scfp WAS UPDATED ****
             **** ENERGY FILE WAS UPDATED (Ethylene_Opt.en.tmp) ****
             **** THE GBW FILE WAS UPDATED (Ethylene_Opt.gbw) ****
             **** DENSITY Ethylene_Opt.scfp WAS UPDATED ****
----------------
ORBITAL ENERGIES
----------------

  NO   OCC          E(Eh)            E(eV) 
   0   2.0000     -10.187064      -277.2041 
   1   2.0000     -10.186375      -277.1854 
   2   2.0000      -0.747886       -20.3510 
   3   2.0000      -0.568725       -15.4758 
   4   2.0000      -0.463262       -12.6060 
   5   2.0000      -0.417990       -11.3741 
   6   2.0000      -0.351483        -9.5643 
   7   2.0000      -0.272540        -7.4162 
   8   0.0000       0.008707         0.2369 
   9   0.0000       0.085369         2.3230 
  10   0.0000       0.104727         2.8498 
  11   0.0000       0.116509         3.1704 
  12   0.0000       0.187304         5.0968 
  13   0.0000       0.327594         8.9143 
  14   0.0000       0.398945        10.8558 
  15   0.0000       0.434032        11.8106 
  16   0.0000       0.444741        12.1020 
  17   0.0000       0.491036        13.3618 
  18   0.0000       0.549448        14.9512 
  19   0.0000       0.577136        15.7047 
  20   0.0000       0.647088        17.6082 
  21   0.0000       0.671458        18.2713 
  22   0.0000       0.678004        18.4494 
  23   0.0000       0.687729        18.7141 
  24   0.0000       0.812683        22.1142 
  25   0.0000       1.043860        28.4049 
  26   0.0000       1.178506        32.0688 
  27   0.0000       1.239370        33.7250 
  28   0.0000       1.272336        34.6220 
  29   0.0000       1.577433        42.9241 
  30   0.0000       1.623671        44.1823 
  31   0.0000       1.631893        44.4061 
  32   0.0000       1.700393        46.2701 
  33   0.0000       1.742556        47.4174 
  34   0.0000       1.761301        47.9274 
  35   0.0000       1.816485        49.4291 
  36   0.0000       1.915805        52.1317 
  37   0.0000       2.065915        56.2164 
  38   0.0000       2.153714        58.6055 
  39   0.0000       2.219525        60.3963 
  40   0.0000       2.371177        64.5230 
  41   0.0000       2.379759        64.7565 
  42   0.0000       2.478431        67.4415 
  43   0.0000       2.677375        72.8551 
  44   0.0000       2.773715        75.4766 
  45   0.0000       2.812439        76.5303 
  46   0.0000       3.045508        82.8725 
  47   0.0000       3.317092        90.2627 

                    ********************************
                    * MULLIKEN POPULATION ANALYSIS *
                    ********************************

-----------------------
MULLIKEN ATOMIC CHARGES
-----------------------
   0 H :    0.028057
   1 C :   -0.056353
   2 H :    0.028290
   3 C :   -0.056338
   4 H :    0.028289
   5 H :    0.028056
Sum of atomic charges:   -0.0000000

--------------------------------
MULLIKEN REDUCED ORBITAL CHARGES
--------------------------------
  0 H s       :     0.948759  s :     0.948759
      pz      :     0.012579  p :     0.023183
      px      :     0.006032
      py      :     0.004572
  1 C s       :     3.123293  s :     3.123293
      pz      :     0.941238  p :     2.905793
      px      :     0.979290
      py      :     0.985265
      dz2     :     0.005359  d :     0.027267
      dxz     :     0.012409
      dyz     :     0.000113
      dx2y2   :     0.004003
      dxy     :     0.005382
  2 H s       :     0.948529  s :     0.948529
      pz      :     0.010787  p :     0.023181
      px      :     0.007812
      py      :     0.004582
  3 C s       :     3.123290  s :     3.123290
      pz      :     0.941238  p :     2.905781
      px      :     0.979287
      py      :     0.985256
      dz2     :     0.005359  d :     0.027267
      dxz     :     0.012409
      dyz     :     0.000113
      dx2y2   :     0.004003
      dxy     :     0.005382
  4 H s       :     0.948530  s :     0.948530
      pz      :     0.010787  p :     0.023181
      px      :     0.007812
      py      :     0.004582
  5 H s       :     0.948761  s :     0.948761
      pz      :     0.012579  p :     0.023183
      px      :     0.006032
      py      :     0.004572


                     *******************************
                     * LOEWDIN POPULATION ANALYSIS *
                     *******************************

----------------------
LOEWDIN ATOMIC CHARGES
----------------------
   0 H :    0.024229
   1 C :   -0.048507
   2 H :    0.024273
   3 C :   -0.048497
   4 H :    0.024272
   5 H :    0.024229

-------------------------------
LOEWDIN REDUCED ORBITAL CHARGES
-------------------------------
  0 H s       :     0.909683  s :     0.909683
      pz      :     0.036492  p :     0.066088
      px      :     0.015634
      py      :     0.013962
  1 C s       :     2.891980  s :     2.891980
      pz      :     1.041753  p :     3.086771
      px      :     1.082518
      py      :     0.962500
      dz2     :     0.014402  d :     0.069756
      dxz     :     0.032813
      dyz     :     0.000253
      dx2y2   :     0.011862
      dxy     :     0.010426
  2 H s       :     0.909642  s :     0.909642
      pz      :     0.031299  p :     0.066085
      px      :     0.020794
      py      :     0.013992
  3 C s       :     2.891978  s :     2.891978
      pz      :     1.041753  p :     3.086762
      px      :     1.082517
      py      :     0.962492
      dz2     :     0.014402  d :     0.069756
      dxz     :     0.032813
      dyz     :     0.000253
      dx2y2   :     0.011862
      dxy     :     0.010426
  4 H s       :     0.909643  s :     0.909643
      pz      :     0.031299  p :     0.066085
      px      :     0.020794
      py      :     0.013992
  5 H s       :     0.909684  s :     0.909684
      pz      :     0.036492  p :     0.066087
      px      :     0.015633
      py      :     0.013962


                      *****************************
                      * MAYER POPULATION ANALYSIS *
                      *****************************

  NA   - Mulliken gross atomic population
  ZA   - Total nuclear charge
  QA   - Mulliken gross atomic charge
  VA   - Mayer's total valence
  BVA  - Mayer's bonded valence
  FA   - Mayer's free valence

  ATOM       NA         ZA         QA         VA         BVA        FA
  0 H      0.9719     1.0000     0.0281     0.9744     0.9744    -0.0000
  1 C      6.0564     6.0000    -0.0564     4.0207     4.0207    -0.0000
  2 H      0.9717     1.0000     0.0283     0.9743     0.9743    -0.0000
  3 C      6.0563     6.0000    -0.0563     4.0207     4.0207    -0.0000
  4 H      0.9717     1.0000     0.0283     0.9743     0.9743    -0.0000
  5 H      0.9719     1.0000     0.0281     0.9744     0.9744    -0.0000

  Mayer bond orders larger than 0.100000
B(  0-H ,  1-C ) :   0.9623 B(  1-C ,  2-H ) :   0.9623 B(  1-C ,  3-C ) :   2.0819 
B(  3-C ,  4-H ) :   0.9623 B(  3-C ,  5-H ) :   0.9623 

-------
TIMINGS
-------

Total SCF time: 0 days 0 hours 0 min 1 sec 

Total time                  ....       1.518 sec
Sum of individual times     ....       1.441 sec  ( 94.9%)

Fock matrix formation       ....       1.242 sec  ( 81.8%)
  Split-RI-J                ....       0.123 sec  (  9.9% of F)
  Chain of spheres X        ....       0.856 sec  ( 68.9% of F)
  XC integration            ....       0.262 sec  ( 21.1% of F)
    Basis function eval.    ....       0.104 sec  ( 39.7% of XC)
    Density eval.           ....       0.063 sec  ( 24.0% of XC)
    XC-Functional eval.     ....       0.035 sec  ( 13.4% of XC)
    XC-Potential eval.      ....       0.033 sec  ( 12.6% of XC)
Diagonalization             ....       0.000 sec  (  0.0%)
Density matrix formation    ....       0.000 sec  (  0.0%)
Population analysis         ....       0.005 sec  (  0.3%)
Initial guess               ....       0.001 sec  (  0.1%)
Orbital Transformation      ....       0.000 sec  (  0.0%)
Orbital Orthonormalization  ....       0.000 sec  (  0.0%)
DIIS solution               ....       0.000 sec  (  0.0%)
SOSCF solution              ....       0.006 sec  (  0.4%)
Grid generation             ....       0.187 sec  ( 12.3%)

Maximum memory used throughout the entire SCF-calculation: 45.5 MB

-------------------------   --------------------
FINAL SINGLE POINT ENERGY       -78.473534496971
-------------------------   --------------------

                                *** OPTIMIZATION RUN DONE ***

                            ***************************************
                            *     ORCA property calculations      *
                            ***************************************

                                    ---------------------
                                    Active property flags
                                    ---------------------
   (+) Dipole Moment


------------------------------------------------------------------------------
                       ORCA ELECTRIC PROPERTIES CALCULATION
------------------------------------------------------------------------------

Dipole Moment Calculation                       ... on
Quadrupole Moment Calculation                   ... off
Polarizability Calculation                      ... off
GBWName                                         ... Ethylene_Opt.gbw
Electron density                                ... Ethylene_Opt.scfp
The origin for moment calculation is the CENTER OF MASS  = (-0.000000,  0.000000  0.000004)

-------------
DIPOLE MOMENT
-------------
                                X             Y             Z
Electronic contribution:     -0.00001       0.00000       0.00001
Nuclear contribution   :      0.00000      -0.00000      -0.00001
                        -----------------------------------------
Total Dipole Moment    :     -0.00001       0.00000      -0.00000
                        -----------------------------------------
Magnitude (a.u.)       :      0.00001
Magnitude (Debye)      :      0.00003



--------------------
Rotational spectrum 
--------------------
 
Rotational constants in cm-1:     4.820893     0.997363     0.826395 
Rotational constants in MHz : 144526.726771 29900.182549 24774.706794 

 Dipole components along the rotational axes: 
x,y,z [a.u.] :     0.000013    -0.000001    -0.000000 
x,y,z [Debye]:     0.000032    -0.000002    -0.000000 

 

Timings for individual modules:

Sum of individual times         ...       20.212 sec (=   0.337 min)
GTO integral calculation        ...        0.890 sec (=   0.015 min)   4.4 %
SCF iterations                  ...       13.954 sec (=   0.233 min)  69.0 %
SCF Gradient evaluation         ...        4.930 sec (=   0.082 min)  24.4 %
Geometry relaxation             ...        0.438 sec (=   0.007 min)   2.2 %
                             ****ORCA TERMINATED NORMALLY****
TOTAL RUN TIME: 0 days 0 hours 0 minutes 20 seconds 724 msec
