
                                 *****************
                                 * O   R   C   A *
                                 *****************

                                            #,                                       
                                            ###                                      
                                            ####                                     
                                            #####                                    
                                            ######                                   
                                           ########,                                 
                                     ,,################,,,,,                         
                               ,,#################################,,                 
                          ,,##########################################,,             
                       ,#########################################, ''#####,          
                    ,#############################################,,   '####,        
                  ,##################################################,,,,####,       
                ,###########''''           ''''###############################       
              ,#####''   ,,,,##########,,,,          '''####'''          '####       
            ,##' ,,,,###########################,,,                        '##       
           ' ,,###''''                  '''############,,,                           
         ,,##''                                '''############,,,,        ,,,,,,###''
      ,#''                                            '''#######################'''  
     '                                                          ''''####''''         
             ,#######,   #######,   ,#######,      ##                                
            ,#'     '#,  ##    ##  ,#'     '#,    #''#        ######   ,####,        
            ##       ##  ##   ,#'  ##            #'  '#       #        #'  '#        
            ##       ##  #######   ##           ,######,      #####,   #    #        
            '#,     ,#'  ##    ##  '#,     ,#' ,#      #,         ##   #,  ,#        
             '#######'   ##     ##  '#######'  #'      '#     #####' # '####'        



                  #######################################################
                  #                        -***-                        #
                  #          Department of theory and spectroscopy      #
                  #    Directorship and core code : Frank Neese         #
                  #        Max Planck Institute fuer Kohlenforschung    #
                  #                Kaiser Wilhelm Platz 1               #
                  #                 D-45470 Muelheim/Ruhr               #
                  #                      Germany                        #
                  #                                                     #
                  #                  All rights reserved                #
                  #                        -***-                        #
                  #######################################################


                         Program Version 5.0.4 -  RELEASE  -


 With contributions from (in alphabetic order):
   Daniel Aravena         : Magnetic Suceptibility
   Michael Atanasov       : Ab Initio Ligand Field Theory (pilot matlab implementation)
   Alexander A. Auer      : GIAO ZORA, VPT2 properties, NMR spectrum
   Ute Becker             : Parallelization
   Giovanni Bistoni       : ED, misc. LED, open-shell LED, HFLD
   Martin Brehm           : Molecular dynamics
   Dmytro Bykov           : SCF Hessian
   Vijay G. Chilkuri      : MRCI spin determinant printing, contributions to CSF-ICE
   Dipayan Datta          : RHF DLPNO-CCSD density
   Achintya Kumar Dutta   : EOM-CC, STEOM-CC
   Dmitry Ganyushin       : Spin-Orbit,Spin-Spin,Magnetic field MRCI
   Miquel Garcia          : C-PCM and meta-GGA Hessian, CC/C-PCM, Gaussian charge scheme
   Yang Guo               : DLPNO-NEVPT2, F12-NEVPT2, CIM, IAO-localization
   Andreas Hansen         : Spin unrestricted coupled pair/coupled cluster methods
   Benjamin Helmich-Paris : MC-RPA, TRAH-SCF, COSX integrals
   Lee Huntington         : MR-EOM, pCC
   Robert Izsak           : Overlap fitted RIJCOSX, COSX-SCS-MP3, EOM
   Marcus Kettner         : VPT2
   Christian Kollmar      : KDIIS, OOCD, Brueckner-CCSD(T), CCSD density, CASPT2, CASPT2-K
   Simone Kossmann        : Meta GGA functionals, TD-DFT gradient, OOMP2, MP2 Hessian
   Martin Krupicka        : Initial AUTO-CI
   Lucas Lang             : DCDCAS
   Marvin Lechner         : AUTO-CI (C++ implementation), FIC-MRCC
   Dagmar Lenk            : GEPOL surface, SMD
   Dimitrios Liakos       : Extrapolation schemes; Compound Job, initial MDCI parallelization
   Dimitrios Manganas     : Further ROCIS development; embedding schemes
   Dimitrios Pantazis     : SARC Basis sets
   Anastasios Papadopoulos: AUTO-CI, single reference methods and gradients
   Taras Petrenko         : DFT Hessian,TD-DFT gradient, ASA, ECA, R-Raman, ABS, FL, XAS/XES, NRVS
   Peter Pinski           : DLPNO-MP2, DLPNO-MP2 Gradient
   Christoph Reimann      : Effective Core Potentials
   Marius Retegan         : Local ZFS, SOC
   Christoph Riplinger    : Optimizer, TS searches, QM/MM, DLPNO-CCSD(T), (RO)-DLPNO pert. Triples
   Tobias Risthaus        : Range-separated hybrids, TD-DFT gradient, RPA, STAB
   Michael Roemelt        : Original ROCIS implementation
   Masaaki Saitow         : Open-shell DLPNO-CCSD energy and density
   Barbara Sandhoefer     : DKH picture change effects
   Avijit Sen             : IP-ROCIS
   Kantharuban Sivalingam : CASSCF convergence, NEVPT2, FIC-MRCI
   Bernardo de Souza      : ESD, SOC TD-DFT
   Georgi Stoychev        : AutoAux, RI-MP2 NMR, DLPNO-MP2 response
   Willem Van den Heuvel  : Paramagnetic NMR
   Boris Wezisla          : Elementary symmetry handling
   Frank Wennmohs         : Technical directorship


 We gratefully acknowledge several colleagues who have allowed us to
 interface, adapt or use parts of their codes:
   Stefan Grimme, W. Hujo, H. Kruse, P. Pracht,  : VdW corrections, initial TS optimization,
                  C. Bannwarth, S. Ehlert          DFT functionals, gCP, sTDA/sTD-DF
   Ed Valeev, F. Pavosevic, A. Kumar             : LibInt (2-el integral package), F12 methods
   Garnet Chan, S. Sharma, J. Yang, R. Olivares  : DMRG
   Ulf Ekstrom                                   : XCFun DFT Library
   Mihaly Kallay                                 : mrcc  (arbitrary order and MRCC methods)
   Jiri Pittner, Ondrej Demel                    : Mk-CCSD
   Frank Weinhold                                : gennbo (NPA and NBO analysis)
   Christopher J. Cramer and Donald G. Truhlar   : smd solvation model
   Lars Goerigk                                  : TD-DFT with DH, B97 family of functionals
   V. Asgeirsson, H. Jonsson                     : NEB implementation
   FAccTs GmbH                                   : IRC, NEB, NEB-TS, DLPNO-Multilevel, CI-OPT
                                                   MM, QMMM, 2- and 3-layer-ONIOM, Crystal-QMMM,
                                                   LR-CPCM, SF, NACMEs, symmetry and pop. for TD-DFT,
                                                   nearIR, NL-DFT gradient (VV10), updates on ESD,
                                                   ML-optimized integration grids
   S Lehtola, MJT Oliveira, MAL Marques          : LibXC Library
   Liviu Ungur et al                             : ANISO software


 Your calculation uses the libint2 library for the computation of 2-el integrals
 For citations please refer to: http://libint.valeyev.net

 Your ORCA version has been built with support for libXC version: 5.1.0
 For citations please refer to: https://tddft.org/programs/libxc/

 This ORCA versions uses:
   CBLAS   interface :  Fast vector & matrix operations
   LAPACKE interface :  Fast linear algebra routines
   SCALAPACK package :  Parallel linear algebra routines
   Shared memory     :  Shared parallel matrices
   BLAS/LAPACK       :  OpenBLAS 0.3.15  USE64BITINT DYNAMIC_ARCH NO_AFFINITY Haswell SINGLE_THREADED
        Core in use  :  Haswell
   Copyright (c) 2011-2014, The OpenBLAS Project


================================================================================

----- Orbital basis set information -----
Your calculation utilizes the basis: def2-TZVP
   F. Weigend and R. Ahlrichs, Phys. Chem. Chem. Phys. 7, 3297 (2005).

----- AuxJ basis set information -----
Your calculation utilizes the auxiliary basis: def2/J
   F. Weigend, Phys. Chem. Chem. Phys. 8, 1057 (2006).

================================================================================
                                        WARNINGS
                       Please study these warnings very carefully!
================================================================================


WARNING: Geometry Optimization
  ===> : Switching off AutoStart
         For restart on a previous wavefunction, please use MOREAD

INFO   : the flag for use of the SHARK integral package has been found!

================================================================================
                                       INPUT FILE
================================================================================
NAME = h2o.inp
|  1> ! PAL2
|  2> ! Opt Freq B3LYP Def2-TZVP Def2/J DefGrid2
|  3> ! TightSCF
|  4> ! LargePrint
|  5> 
|  6> %MaxCore 1000
|  7> 
|  8> * xyz 0 1
|  9> O    0.0000   -0.7920    0.7920
| 10> H    0.0000    0.0000    0.0000
| 11> H    0.0626   -0.4973   -0.4973
| 12> **                         ****END OF INPUT****
================================================================================

                       *****************************
                       * Geometry Optimization Run *
                       *****************************

Geometry optimization settings:
Update method            Update   .... BFGS
Choice of coordinates    CoordSys .... Z-matrix Internals
Initial Hessian          InHess   .... Almoef's Model

Convergence Tolerances:
Energy Change            TolE     ....  5.0000e-06 Eh
Max. Gradient            TolMAXG  ....  3.0000e-04 Eh/bohr
RMS Gradient             TolRMSG  ....  1.0000e-04 Eh/bohr
Max. Displacement        TolMAXD  ....  4.0000e-03 bohr
RMS Displacement         TolRMSD  ....  2.0000e-03 bohr
Strict Convergence                ....  False
------------------------------------------------------------------------------
                        ORCA OPTIMIZATION COORDINATE SETUP
------------------------------------------------------------------------------

The optimization will be done in new redundant internal coordinates
Making redundant internal coordinates   ...  (new redundants) done
Evaluating the initial hessian          ...  (Almloef) done
Evaluating the coordinates              ...  done
Calculating the B-matrix                .... done
Calculating the G-matrix                .... done
Diagonalizing the G-matrix              .... done
The first mode is                       ....    3
The number of degrees of freedom        ....    3

    -----------------------------------------------------------------
                    Redundant Internal Coordinates


    -----------------------------------------------------------------
         Definition                    Initial Value    Approx d2E/dq
    -----------------------------------------------------------------
      1. B(H   1,O   0)                  1.1201         0.288806   
      2. B(H   2,H   1)                  0.7061         0.282497   
      3. B(H   2,O   0)                  1.3240         0.136514   
      4. A(H   1,O   0,H   2)           32.2268         0.239589   
      5. A(O   0,H   1,H   2)           90.0000         0.232631   
      6. A(O   0,H   2,H   1)           57.7732         0.210224   
    -----------------------------------------------------------------

Number of atoms                         .... 3
Number of degrees of freedom            .... 6

         *************************************************************
         *                GEOMETRY OPTIMIZATION CYCLE   1            *
         *************************************************************
---------------------------------
CARTESIAN COORDINATES (ANGSTROEM)
---------------------------------
  O      0.000000   -0.792000    0.792000
  H      0.000000    0.000000    0.000000
  H      0.062600   -0.497300   -0.497300

----------------------------
CARTESIAN COORDINATES (A.U.)
----------------------------
  NO LB      ZA    FRAG     MASS         X           Y           Z
   0 O     8.0000    0    15.999    0.000000   -1.496663    1.496663
   1 H     1.0000    0     1.008    0.000000    0.000000    0.000000
   2 H     1.0000    0     1.008    0.118297   -0.939761   -0.939761

--------------------------------
INTERNAL COORDINATES (ANGSTROEM)
--------------------------------
 O      0   0   0     0.000000000000     0.00000000     0.00000000
 H      1   0   0     1.120057141399     0.00000000     0.00000000
 H      2   1   0     0.706068934312    90.00000000     0.00000000

---------------------------
INTERNAL COORDINATES (A.U.)
---------------------------
 O      0   0   0     0.000000000000     0.00000000     0.00000000
 H      1   0   0     2.116601251588     0.00000000     0.00000000
 H      2   1   0     1.334276917519    90.00000000     0.00000000

---------------------
BASIS SET INFORMATION
---------------------
There are 2 groups of distinct atoms

 Group   1 Type O   : 11s6p2d1f contracted to 5s3p2d1f pattern {62111/411/11/1}
 Group   2 Type H   : 5s1p contracted to 3s1p pattern {311/1}

Atom   0O    basis set group =>   1
Atom   1H    basis set group =>   2
Atom   2H    basis set group =>   2

-------------------------
BASIS SET IN INPUT FORMAT
-------------------------

 # Basis set for element : H 
 NewGTO H 
 S 3 
   1      34.0613410000      0.0254393072
   2       5.1235746000      0.1900859489
   3       1.1646626000      0.8524411301
 S 1 
   1       0.3272304100      1.0000000000
 S 1 
   1       0.1030724100      1.0000000000
 P 1 
   1       0.8000000000      1.0000000000
  end;

 # Basis set for element : O 
 NewGTO O 
 S 6 
   1   27032.3826310000      0.0005722733
   2    4052.3871392000      0.0044353233
   3     922.3272271000      0.0230201076
   4     261.2407098900      0.0928224906
   5      85.3546413510      0.2937850002
   6      31.0350352450      0.6740160450
 S 2 
   1      12.2608607280      0.6383993702
   2       4.9987076005      0.3953458713
 S 1 
   1       1.1703108158      1.0000000000
 S 1 
   1       0.4647474099      1.0000000000
 S 1 
   1       0.1850453636      1.0000000000
 P 4 
   1      63.2749548010      0.0120183321
   2      14.6270493790      0.0830054217
   3       4.4501223456      0.3199174393
   4       1.5275799647      0.7071554292
 P 1 
   1       0.5293511794      1.0000000000
 P 1 
   1       0.1747842127      1.0000000000
 D 1 
   1       2.3140000000      1.0000000000
 D 1 
   1       0.6450000000      1.0000000000
 F 1 
   1       1.4280000000      1.0000000000
  end;

---------------------------------
AUXILIARY/J BASIS SET INFORMATION
---------------------------------
There are 2 groups of distinct atoms

 Group   1 Type O   : 12s5p4d2f1g contracted to 6s4p3d1f1g pattern {711111/2111/211/2/1}
 Group   2 Type H   : 5s2p1d contracted to 3s1p1d pattern {311/2/1}

Atom   0O    basis set group =>   1
Atom   1H    basis set group =>   2
Atom   2H    basis set group =>   2

-------------------------------------
AUXILIARY/J BASIS SET IN INPUT FORMAT
-------------------------------------

 # Auxiliary/J basis set for element : H 
 NewAuxJGTO H 
 S 3 
   1      15.6752927000      0.1007184237
   2       3.6063578000      0.3404257499
   3       1.2080016000      0.6491996172
 S 1 
   1       0.4726794000      1.0000000000
 S 1 
   1       0.2018100000      1.0000000000
 P 2 
   1       2.0281365000      0.5596620919
   2       0.5358730000      0.5596620919
 D 1 
   1       2.2165124000      1.0000000000
  end;

 # Auxiliary/J basis set for element : O 
 NewAuxJGTO O 
 S 7 
   1    2876.8216605000      0.0168151159
   2    1004.7443032000      0.0340137548
   3     369.7579954000      0.1194951309
   4     142.9442404000      0.2664627624
   5      57.8366425000      0.4202764046
   6      24.3864983000      0.2765077335
   7      10.6622662000      0.0057008815
 S 1 
   1       4.8070437000     -1.0000000000
 S 1 
   1       2.2210770000      1.0000000000
 S 1 
   1       1.0447795000      1.0000000000
 S 1 
   1       0.4968425000      1.0000000000
 S 1 
   1       0.2371384000      1.0000000000
 P 2 
   1      64.2613382000     -0.2731534179
   2      16.3006076000     -0.8168011598
 P 1 
   1       4.3550542000      1.0000000000
 P 1 
   1       1.2019554000      1.0000000000
 P 1 
   1       0.3354196000      1.0000000000
 D 2 
   1       9.2146611000     -0.4661230638
   2       2.8435251000     -0.6600908911
 D 1 
   1       0.9955759000     -1.0000000000
 D 1 
   1       0.3649441000     -1.0000000000
 F 2 
   1       2.6420115000      0.5931563945
   2       0.7345613000      0.5931563945
 G 1 
   1       1.3931000000     -1.0000000000
  end;



           ************************************************************
           *        Program running with 2 parallel MPI-processes     *
           *              working on a common directory               *
           ************************************************************
------------------------------------------------------------------------------
                           ORCA GTO INTEGRAL CALCULATION
                           -- RI-GTO INTEGRALS CHOSEN --
------------------------------------------------------------------------------
------------------------------------------------------------------------------
                   ___                                                        
                  /   \      - P O W E R E D   B Y -                         
                 /     \                                                     
                 |  |  |   _    _      __       _____    __    __             
                 |  |  |  | |  | |    /  \     |  _  \  |  |  /  |          
                  \  \/   | |  | |   /    \    | | | |  |  | /  /          
                 / \  \   | |__| |  /  /\  \   | |_| |  |  |/  /          
                |  |  |   |  __  | /  /__\  \  |    /   |      \           
                |  |  |   | |  | | |   __   |  |    \   |  |\   \          
                \     /   | |  | | |  |  |  |  | |\  \  |  | \   \       
                 \___/    |_|  |_| |__|  |__|  |_| \__\ |__|  \__/        
                                                                              
                      - O R C A' S   B I G   F R I E N D -                    
                                      &                                       
                       - I N T E G R A L  F E E D E R -                       
                                                                              
 v1 FN, 2020, v2 2021                                                         
------------------------------------------------------------------------------


Reading SHARK input file h2o.SHARKINP.tmp ... SHARK General Contraction Test:  Segmented basis detected
   -> Pre-screening matrix *NOT* found on disk - recalculating with NShells=19
   -> Leaving CheckPreScreeningMatrix
ok
----------------------
SHARK INTEGRAL PACKAGE
----------------------

Number of atoms                             ...      3
Number of basis functions                   ...     43
Number of shells                            ...     19
Maximum angular momentum                    ...      3
Integral batch strategy                     ... SHARK/LIBINT Hybrid
RI-J (if used) integral strategy            ... SPLIT-RIJ (Revised 2003 algorithm where possible)
Printlevel                                  ...      2
Contraction scheme used                     ... SEGMENTED contraction
Coulomb Range Separation                    ... NOT USED
Exchange Range Separation                   ... NOT USED
Finite Nucleus Model                        ... NOT USED
Auxiliary Coulomb fitting basis             ... AVAILABLE
   # of basis functions in Aux-J            ...     71
   # of shells in Aux-J                     ...     25
   Maximum angular momentum in Aux-J        ...      4
Auxiliary J/K fitting basis                 ... NOT available
Auxiliary Correlation fitting basis         ... NOT available
Auxiliary 'external' fitting basis          ... NOT available
Integral threshold                          ...     2.500000e-11
Primitive cut-off                           ...     2.500000e-12
Primitive pair pre-selection threshold      ...     2.500000e-12

Calculating pre-screening integrals         ... done (  0.0 sec) Dimension = 19
Organizing shell pair data                  ... done (  0.0 sec)
Shell pair information
Total number of shell pairs                 ...       190
Shell pairs after pre-screening             ...       190
Total number of primitive shell pairs       ...       556
Primitive shell pairs kept                  ...       531
          la=0 lb=0:     66 shell pairs
          la=1 lb=0:     55 shell pairs
          la=1 lb=1:     15 shell pairs
          la=2 lb=0:     22 shell pairs
          la=2 lb=1:     10 shell pairs
          la=2 lb=2:      3 shell pairs
          la=3 lb=0:     11 shell pairs
          la=3 lb=1:      5 shell pairs
          la=3 lb=2:      2 shell pairs
          la=3 lb=3:      1 shell pairs

Calculating one electron integrals          ... done (  0.0 sec)
Calculating RI/J V-Matrix + Cholesky decomp.... done (  0.0 sec)
Calculating Nuclear repulsion               ... done (  0.0 sec) ENN=      7.726481517027 Eh

SHARK setup successfully completed in   0.1 seconds

Maximum memory used throughout the entire GTOINT-calculation: 13.8 MB


           ************************************************************
           *        Program running with 2 parallel MPI-processes     *
           *              working on a common directory               *
           ************************************************************
-------------------------------------------------------------------------------
                                 ORCA SCF
-------------------------------------------------------------------------------

------------
SCF SETTINGS
------------
Hamiltonian:
 Density Functional     Method          .... DFT(GTOs)
 Exchange Functional    Exchange        .... B88
   X-Alpha parameter    XAlpha          ....  0.666667
   Becke's b parameter  XBeta           ....  0.004200
 Correlation Functional Correlation     .... LYP
 LDA part of GGA corr.  LDAOpt          .... VWN-5
 Gradients option       PostSCFGGA      .... off
 Hybrid DFT is turned on
   Fraction HF Exchange ScalHFX         ....  0.200000
   Scaling of DF-GGA-X  ScalDFX         ....  0.720000
   Scaling of DF-GGA-C  ScalDFC         ....  0.810000
   Scaling of DF-LDA-C  ScalLDAC        ....  1.000000
   Perturbative correction              ....  0.000000
   Density functional embedding theory  .... OFF
   NL short-range parameter             ....  4.800000
 RI-approximation to the Coulomb term is turned on
   Number of AuxJ basis functions       .... 71
   RIJ-COSX (HFX calculated with COS-X)).... on


General Settings:
 Integral files         IntName         .... h2o
 Hartree-Fock type      HFTyp           .... RHF
 Total Charge           Charge          ....    0
 Multiplicity           Mult            ....    1
 Number of Electrons    NEL             ....   10
 Basis Dimension        Dim             ....   43
 Nuclear Repulsion      ENuc            ....      7.7264815170 Eh

Convergence Acceleration:
 DIIS                   CNVDIIS         .... on
   Start iteration      DIISMaxIt       ....    12
   Startup error        DIISStart       ....  0.200000
   # of expansion vecs  DIISMaxEq       ....     5
   Bias factor          DIISBfac        ....   1.050
   Max. coefficient     DIISMaxC        ....  10.000
 Trust-Rad. Augm. Hess. CNVTRAH         .... auto
   Auto Start mean grad. ratio tolernc. ....  1.125000
   Auto Start start iteration           ....    20
   Auto Start num. interpolation iter.  ....    10
   Max. Number of Micro iterations      ....    16
   Max. Number of Macro iterations      .... Maxiter - #DIIS iter
   Number of Davidson start vectors     ....     2
   Converg. threshold I  (grad. norm)   ....   1.000e-05
   Converg. threshold II (energy diff.) ....   1.000e-08
   Grad. Scal. Fac. for Micro threshold ....   0.100
   Minimum threshold for Micro iter.    ....   0.010
   NR start threshold (gradient norm)   ....   0.001
   Initial trust radius                 ....   0.400
   Minimum AH scaling param. (alpha)    ....   1.000
   Maximum AH scaling param. (alpha)    .... 1000.000
   Orbital update algorithm             .... Taylor
   White noise on init. David. guess    .... on
   Maximum white noise                  ....   0.010
   Quad. conv. algorithm                .... NR
 SOSCF                  CNVSOSCF        .... on
   Start iteration      SOSCFMaxIt      ....   150
   Startup grad/error   SOSCFStart      ....  0.003300
 Level Shifting         CNVShift        .... on
   Level shift para.    LevelShift      ....    0.2500
   Turn off err/grad.   ShiftErr        ....    0.0010
 Zerner damping         CNVZerner       .... off
 Static damping         CNVDamp         .... on
   Fraction old density DampFac         ....    0.7000
   Max. Damping (<1)    DampMax         ....    0.9800
   Min. Damping (>=0)   DampMin         ....    0.0000
   Turn off err/grad.   DampErr         ....    0.1000
 Fernandez-Rico         CNVRico         .... off

SCF Procedure:
 Maximum # iterations   MaxIter         ....   125
 SCF integral mode      SCFMode         .... Direct
   Integral package                     .... SHARK and LIBINT hybrid scheme
 Reset frequency        DirectResetFreq ....    20
 Integral Threshold     Thresh          ....  2.500e-11 Eh
 Primitive CutOff       TCut            ....  2.500e-12 Eh

Convergence Tolerance:
 Convergence Check Mode ConvCheckMode   .... Total+1el-Energy
 Convergence forced     ConvForced      .... 0
 Energy Change          TolE            ....  1.000e-08 Eh
 1-El. energy change                    ....  1.000e-05 Eh
 Orbital Gradient       TolG            ....  1.000e-05
 Orbital Rotation angle TolX            ....  1.000e-05
 DIIS Error             TolErr          ....  5.000e-07


Diagonalization of the overlap matrix:
Smallest eigenvalue                        ... 1.131e-02
Time for diagonalization                   ...    0.001 sec
Threshold for overlap eigenvalues          ... 1.000e-08
Number of eigenvalues below threshold      ... 0
Time for construction of square roots      ...    0.004 sec
Total time needed                          ...    0.006 sec

SHARK General Contraction Test:  Segmented basis detected
   -> Pre-screening matrix found on disk - Trying to read with NShells=19
   -> Passing Pre-screening matrix on to SHARK ...ok
   -> Leaving CheckPreScreeningMatrix
----------------------
SHARK INTEGRAL PACKAGE
----------------------

Number of atoms                             ...      3
Number of basis functions                   ...     43
Number of shells                            ...     19
Maximum angular momentum                    ...      3
Integral batch strategy                     ... SHARK/LIBINT Hybrid
RI-J (if used) integral strategy            ... SPLIT-RIJ (Revised 2003 algorithm where possible)
Printlevel                                  ...      2
Contraction scheme used                     ... SEGMENTED contraction
Coulomb Range Separation                    ... NOT USED
Exchange Range Separation                   ... NOT USED
Finite Nucleus Model                        ... NOT USED
Auxiliary Coulomb fitting basis             ... AVAILABLE
   # of basis functions in Aux-J            ...     71
   # of shells in Aux-J                     ...     25
   Maximum angular momentum in Aux-J        ...      4
Auxiliary J/K fitting basis                 ... NOT available
Auxiliary Correlation fitting basis         ... NOT available
Auxiliary 'external' fitting basis          ... NOT available
Integral threshold                          ...     2.500000e-11
Primitive cut-off                           ...     2.500000e-12
Primitive pair pre-selection threshold      ...     2.500000e-12

Time for model grid setup =    0.020 sec

------------------------------
INITIAL GUESS: MODEL POTENTIAL
------------------------------
Loading Hartree-Fock densities                     ... done
Calculating cut-offs                               ... done
Initializing the effective Hamiltonian             ... done
Setting up the integral package (SHARK)            ... done
Starting the Coulomb interaction                   ...     -> Generating integrals - 
    -> L=0 0 :     0.001 sec done=      1386 skipped=         0 prim-skipped=         0
    -> L=1 0 :     0.001 sec done=      1155 skipped=         0 prim-skipped=         0
    -> L=1 1 :     0.000 sec done=       315 skipped=         0 prim-skipped=         0
    -> L=2 0 :     0.000 sec done=       462 skipped=         0 prim-skipped=         0
    -> L=2 1 :     0.000 sec done=       210 skipped=         0 prim-skipped=         0
    -> L=2 2 :     0.000 sec done=        63 skipped=         0 prim-skipped=         0
    -> L=3 0 :     0.000 sec done=       231 skipped=         0 prim-skipped=         0
    -> L=3 1 :     0.000 sec done=       105 skipped=         0 prim-skipped=         0
    -> L=3 2 :     0.000 sec done=        42 skipped=         0 prim-skipped=         0
    -> L=3 3 :     0.000 sec done=        21 skipped=         0 prim-skipped=         0
done (   0.0 sec)
Reading the grid                                   ... done
Mapping shells                                     ... done
Starting the XC term evaluation                    ... done (   0.0 sec)
  promolecular density results
     # of electrons  =      9.999608190
     EX              =     -8.732896326
     EC              =     -0.330502493
     EX+EC           =     -9.063398818
Transforming the Hamiltonian                       ... done (   0.0 sec)
Diagonalizing the Hamiltonian                      ... done (   0.0 sec)
Back transforming the eigenvectors                 ... done (   0.0 sec)
Now organizing SCF variables                       ... done
                      ------------------
                      INITIAL GUESS DONE (   0.0 sec)
                      ------------------
----------------------
INITIAL GUESS ORBITALS
----------------------
                      0         1         2         3         4         5   
                 -18.95925  -0.97355  -0.55663  -0.37617  -0.36028  -0.18151
                   2.00000   2.00000   2.00000   2.00000   2.00000   0.00000
                  --------  --------  --------  --------  --------  --------
  0O   1s        -0.435583  0.100585  0.047250 -0.000073 -0.000001  0.024791
  0O   2s        -0.638858  0.234976  0.111718 -0.000141  0.000001  0.059966
  0O   3s        -0.035236 -0.356213 -0.183568 -0.000405 -0.000000 -0.111214
  0O   4s         0.020925 -0.462521 -0.225723 -0.001033 -0.000020 -0.117684
  0O   5s        -0.007449 -0.167121 -0.198222  0.019014  0.000056 -0.340611
  0O   1pz        0.000783  0.063346 -0.272192 -0.237587 -0.031741  0.370613
  0O   1px       -0.000013 -0.001275  0.006482  0.041661 -0.509816 -0.013204
  0O   1py       -0.000576 -0.043364  0.168576 -0.433305 -0.031558 -0.160387
  0O   2pz       -0.001847  0.057147 -0.206111 -0.193445 -0.025042  0.304334
  0O   2px        0.000024 -0.001275  0.005100  0.033289 -0.402517 -0.010723
  0O   2py        0.001468 -0.036998  0.125092 -0.343451 -0.024981 -0.134018
  0O   3pz        0.000540  0.008944 -0.086034 -0.123541 -0.017736  0.325575
  0O   3px        0.000001 -0.000229  0.002138  0.020727 -0.283804 -0.011199
  0O   3py       -0.000552 -0.005203  0.051501 -0.211747 -0.017588 -0.146624
  0O   1dz2      -0.000146 -0.001685  0.003800  0.002332  0.000151  0.002725
  0O   1dxz       0.000008  0.000096 -0.000208 -0.000276  0.001376 -0.000222
  0O   1dyz       0.000218  0.002863 -0.005197  0.001629 -0.000007 -0.001863
  0O   1dx2y2     0.000096  0.001153 -0.001996  0.001639  0.000041 -0.000694
  0O   1dxy      -0.000002 -0.000014  0.000071  0.000098 -0.001199  0.000042
  0O   2dz2       0.000540 -0.008405  0.010070  0.013536  0.001674 -0.000257
  0O   2dxz      -0.000027  0.000515 -0.000567 -0.001319  0.015309 -0.000065
  0O   2dyz      -0.000925  0.010029 -0.011734  0.006142  0.000402  0.002475
  0O   2dx2y2    -0.000425  0.004013 -0.003395  0.007287  0.000201  0.001000
  0O   2dxy       0.000005 -0.000175  0.000317  0.000543 -0.009527 -0.000058
  0O   1f0       -0.000030  0.000888 -0.001093 -0.002743 -0.000342  0.000053
  0O   1f+1       0.000010 -0.000173  0.000149  0.000269 -0.002214 -0.000004
  0O   1f-1       0.000204 -0.002161  0.002450  0.000247  0.000094 -0.001410
  0O   1f+2       0.000185 -0.001637  0.001447 -0.001309  0.000042 -0.000775
  0O   1f-2      -0.000003  0.000057 -0.000091 -0.000135  0.002406  0.000045
  0O   1f+3      -0.000000  0.000001  0.000004  0.000094 -0.001111 -0.000033
  0O   1f-3       0.000078 -0.000583  0.000514 -0.001100 -0.000014 -0.000033
  1H   1s        -0.000246 -0.097905  0.163878 -0.037962  0.000062  0.087808
  1H   2s        -0.001487 -0.076481  0.203509 -0.074267 -0.000198  0.192683
  1H   3s         0.001984 -0.003216  0.036798 -0.087485  0.000195  0.234344
  1H   1pz       -0.001112 -0.006096 -0.007020 -0.020085 -0.001263 -0.037210
  1H   1px        0.000018 -0.000641  0.001645  0.001559 -0.021695  0.001594
  1H   1py        0.000822  0.017371 -0.021008 -0.004669 -0.001287  0.011204
  2H   1s         0.000033 -0.068793  0.147404  0.050028 -0.000095  0.164884
  2H   2s        -0.000706 -0.051777  0.174901  0.097273  0.000223  0.320167
  2H   3s         0.000140 -0.003525  0.044108  0.094038 -0.000264  0.380297
  2H   1pz       -0.000774 -0.012857  0.015276  0.008182 -0.000845 -0.014169
  2H   1px        0.000050  0.000810 -0.001481  0.000365 -0.014658 -0.000318
  2H   1py       -0.000021 -0.000870  0.010236 -0.013394 -0.000821  0.021293
                      6         7         8         9        10        11   
                   0.05676   0.14563   0.32861   0.33793   0.35674   0.43525
                   0.00000   0.00000   0.00000   0.00000   0.00000   0.00000
                  --------  --------  --------  --------  --------  --------
  0O   1s         0.008937  0.000546  0.043422 -0.000108  0.002571 -0.018241
  0O   2s         0.022718  0.002567  0.092231 -0.000246  0.004901 -0.037571
  0O   3s        -0.059361 -0.024590  0.015488  0.000140  0.002281 -0.038048
  0O   4s         0.038728  0.049308 -1.249109  0.002160 -0.129931  0.841135
  0O   5s        -0.457694 -0.306614  1.392064 -0.000100  0.557418 -1.442606
  0O   1pz       -0.065107 -0.138470 -0.140638  0.020648 -0.053317 -0.219614
  0O   1px        0.016004  0.003249  0.001475  0.320990  0.004103  0.022945
  0O   1py       -0.189613  0.086165  0.133680  0.019572 -0.029877 -0.140975
  0O   2pz       -0.056521 -0.197165 -0.313534  0.040792 -0.171811 -0.473067
  0O   2px        0.011461  0.004382  0.004422  0.636359  0.012929  0.050128
  0O   2py       -0.126865  0.125932  0.278548  0.038927 -0.068596 -0.318668
  0O   3pz        0.006041  0.032763  0.725483 -0.079911 -0.009019  1.594321
  0O   3px        0.021297 -0.003017 -0.011165 -1.207482 -0.040801 -0.127775
  0O   3py       -0.341975  0.017280 -0.613415 -0.070797  0.721685  0.424889
  0O   1dz2      -0.001824 -0.006049  0.003449 -0.000287  0.006653  0.010120
  0O   1dxz       0.000267  0.000392 -0.000200 -0.002433 -0.001135 -0.000674
  0O   1dyz      -0.003376  0.007511 -0.004660  0.000050  0.014704 -0.010553
  0O   1dx2y2    -0.002382  0.003302 -0.001964  0.000005  0.008431 -0.003707
  0O   1dxy      -0.000089 -0.000058  0.000057  0.001695  0.000126  0.000188
  0O   2dz2      -0.020159 -0.008986  0.000691  0.001701  0.032257 -0.006619
  0O   2dxz       0.002503  0.000576 -0.000244  0.013648 -0.002484  0.000220
  0O   2dyz      -0.014755  0.003880  0.007183  0.000171 -0.013345  0.018165
  0O   2dx2y2    -0.009782 -0.002977  0.004580 -0.000050  0.003776  0.010540
  0O   2dxy      -0.000284 -0.000597  0.000058 -0.007345  0.001405  0.000173
  0O   1f0        0.002293  0.000112  0.000185  0.000051  0.001396  0.000871
  0O   1f+1      -0.000313  0.000060 -0.000086  0.000258 -0.000269 -0.000191
  0O   1f-1       0.001056  0.000681 -0.000553 -0.000024  0.005178 -0.002721
  0O   1f+2       0.001120  0.001223 -0.000837  0.000043  0.002706 -0.002562
  0O   1f-2       0.000028  0.000027 -0.000021 -0.000795 -0.000199  0.000070
  0O   1f+3       0.000076 -0.000029  0.000006  0.000418  0.000196  0.000026
  0O   1f-3       0.000030  0.000628 -0.000342  0.000051  0.000044 -0.001292
  1H   1s         0.097917 -0.105051  0.013335 -0.000467 -0.141572  0.026761
  1H   2s         0.148216 -0.597047  0.177414 -0.008825 -2.037489  0.723151
  1H   3s         2.703168  0.635129 -0.152343  0.005892  1.597980 -1.403741
  1H   1pz        0.018021 -0.001884  0.017331 -0.001434  0.045107  0.017699
  1H   1px       -0.004430 -0.000943 -0.000234 -0.024445 -0.010297  0.000766
  1H   1py        0.051226  0.019884 -0.015245 -0.000742  0.125073 -0.031779
  2H   1s        -0.082448 -0.102559  0.014592  0.000354  0.134966 -0.058004
  2H   2s        -0.103043 -0.711747  0.177042  0.004993  1.622921 -0.002172
  2H   3s        -2.270478  1.120111 -0.173445 -0.006170 -1.776535  1.911490
  2H   1pz        0.036467 -0.020039  0.021422 -0.002155  0.114854  0.028629
  2H   1px       -0.004914  0.002791 -0.000387 -0.041016 -0.010725 -0.001253
  2H   1py        0.040108 -0.028280 -0.016772 -0.002128  0.062361 -0.009037
                     12        13        14        15        16        17   
                   0.48808   0.93907   1.23272   1.28685   1.28995   1.44603
                   0.00000   0.00000   0.00000   0.00000   0.00000   0.00000
                  --------  --------  --------  --------  --------  --------
  0O   1s         0.034275 -0.000002  0.011358 -0.004642 -0.000248  0.005586
  0O   2s         0.071220  0.000005  0.032059 -0.012716 -0.000712  0.015165
  0O   3s         0.063533 -0.000119 -0.143540  0.053926  0.003283 -0.056731
  0O   4s        -1.517371  0.000248  0.188053 -0.129220 -0.007426  0.059871
  0O   5s         2.627710 -0.000102 -0.147484  0.279374  0.014721  0.222875
  0O   1pz        0.033608  0.002948  0.188594 -0.054058 -0.002072  0.054425
  0O   1px        0.012496  0.045929 -0.008656  0.001167  0.010715  0.000587
  0O   1py       -0.236103  0.002996 -0.050711  0.026204  0.001817 -0.066497
  0O   2pz        0.073096 -0.005133 -0.052961 -0.008253  0.000997 -0.035367
  0O   2px        0.024972 -0.078354  0.000314 -0.000601  0.016908 -0.001825
  0O   2py       -0.474509 -0.004953  0.047100  0.006266  0.001420  0.066504
  0O   3pz       -0.642203  0.020012 -0.158372 -0.099228 -0.006149 -0.206005
  0O   3px       -0.051290  0.316732  0.002837  0.002865 -0.009393 -0.004292
  0O   3py        1.469529  0.019972  0.113299  0.063133  0.003073  0.273087
  0O   1dz2      -0.008975  0.000221  0.015445 -0.004928  0.000262 -0.001589
  0O   1dxz       0.000648  0.002186 -0.001432  0.000015  0.004378  0.000283
  0O   1dyz       0.009987 -0.000086 -0.003717  0.005717  0.000542 -0.008108
  0O   1dx2y2     0.004577  0.000297  0.000650  0.000898 -0.000116 -0.006942
  0O   1dxy      -0.000058 -0.003458  0.000310 -0.000280 -0.000393 -0.000339
  0O   2dz2       0.001196  0.045137  0.503654 -0.241437 -0.059130 -0.400684
  0O   2dxz       0.000433  0.409962 -0.028142  0.115205 -0.423534  0.067516
  0O   2dyz      -0.031359  0.012026 -0.286617 -0.315481 -0.093549 -0.725505
  0O   2dx2y2    -0.022368  0.001946  0.135189  0.749894  0.163619 -0.362314
  0O   2dxy      -0.000758 -0.222727  0.035348  0.154642 -0.789177  0.000439
  0O   1f0        0.000122 -0.001737  0.000272  0.001774  0.001689  0.003693
  0O   1f+1       0.000206 -0.011254 -0.000118 -0.001632  0.010348 -0.000639
  0O   1f-1       0.003161 -0.000089  0.011738  0.009545  0.001430  0.008029
  0O   1f+2       0.004506  0.000486  0.006749 -0.002615 -0.001024  0.004533
  0O   1f-2       0.000049  0.006134 -0.000408 -0.001120  0.002419 -0.000284
  0O   1f+3      -0.000083 -0.001172  0.000262  0.000788 -0.004693 -0.000015
  0O   1f-3       0.002308  0.000259  0.001131 -0.004560 -0.001095  0.001943
  1H   1s         0.104442 -0.000048  0.317217 -0.060397 -0.002813  0.336211
  1H   2s         0.235336  0.000444 -0.578461  0.082535  0.002154 -2.202666
  1H   3s        -2.761227  0.000429  0.315469 -0.171583 -0.007831  0.973525
  1H   1pz       -0.066030 -0.027536 -0.125840 -0.215120 -0.026402  0.439395
  1H   1px        0.003576 -0.429672  0.018711  0.036087 -0.250086 -0.033138
  1H   1py        0.007020 -0.027380 -0.168494 -0.174999 -0.024672  0.098986
  2H   1s        -0.044770  0.000096  0.243091 -0.014170 -0.000604  0.058156
  2H   2s        -0.946482 -0.000572 -0.882803 -0.240116 -0.011653  1.229071
  2H   3s         1.700841 -0.000391  0.472383  0.087628  0.004196 -0.723345
  2H   1pz       -0.059623 -0.028323  0.423329 -0.139397  0.011927  0.145289
  2H   1px        0.004809 -0.442427 -0.015933 -0.022132  0.289418 -0.028352
  2H   1py       -0.019292 -0.028395 -0.170778  0.264248  0.031348  0.295841
                     18        19        20        21        22        23   
                   1.60203   1.65347   1.77965   1.95141   1.97730   2.27725
                   0.00000   0.00000   0.00000   0.00000   0.00000   0.00000
                  --------  --------  --------  --------  --------  --------
  0O   1s        -0.005253 -0.000046 -0.001534  0.000090 -0.013632 -0.002285
  0O   2s        -0.010474 -0.000112 -0.005965  0.000304 -0.042522 -0.014058
  0O   3s        -0.031112  0.000260  0.095927 -0.002414  0.271277  0.206245
  0O   4s         0.126514 -0.000554 -0.365152  0.008801 -0.845426 -0.451238
  0O   5s         0.457863  0.001373 -0.144407 -0.014681  1.560414 -0.200669
  0O   1pz        0.014331  0.001941 -0.021408 -0.006509 -0.569683 -0.251007
  0O   1px       -0.000829  0.031696  0.000953 -0.182584  0.019040  0.071842
  0O   1py       -0.002263  0.001777 -0.001498 -0.013963  0.227758 -0.897932
  0O   2pz       -0.215456 -0.006014  0.112731  0.003884  0.626116  0.567393
  0O   2px        0.001111 -0.081665  0.014573  0.161155 -0.020953 -0.094914
  0O   2py        0.202604 -0.005183 -0.329748  0.013472 -0.254294  0.951855
  0O   3pz       -0.294165  0.015020  0.190397 -0.001923 -1.073828 -0.263049
  0O   3px        0.003936  0.247246 -0.015044 -0.184818  0.032871  0.071662
  0O   3py        0.216365  0.016624  0.021009 -0.016928  0.517190 -0.879391
  0O   1dz2      -0.007400 -0.001145 -0.013979 -0.001120  0.001962  0.003854
  0O   1dxz       0.000111 -0.009788  0.002172 -0.009682 -0.000322  0.000019
  0O   1dyz       0.016291 -0.000403 -0.011031 -0.000847 -0.000726 -0.014386
  0O   1dx2y2     0.004387  0.000394 -0.002981  0.001206 -0.001798 -0.007734
  0O   1dxy      -0.000461  0.002098  0.000304 -0.004375 -0.000220 -0.000069
  0O   2dz2      -0.070286 -0.092274 -0.216457  0.011294  0.732195  0.282163
  0O   2dxz      -0.027745 -0.833806  0.017033  0.164117 -0.061580 -0.039429
  0O   2dyz       0.203561 -0.033715  0.065999 -0.018111 -0.561336  0.417437
  0O   2dx2y2    -0.413083  0.013401 -0.105486  0.061739 -0.292216  0.283300
  0O   2dxy      -0.065708  0.289932 -0.018834 -0.541552 -0.006844  0.009650
  0O   1f0       -0.000590 -0.003361 -0.047246 -0.003252  0.008996  0.008409
  0O   1f+1      -0.000426 -0.020289  0.005547 -0.020322 -0.002629 -0.001639
  0O   1f-1       0.044118 -0.000563 -0.028383 -0.003495 -0.002264 -0.015861
  0O   1f+2       0.022260  0.001273 -0.037721  0.003650 -0.011225 -0.013559
  0O   1f-2      -0.001998  0.005924 -0.000432 -0.022967 -0.000767  0.000306
  0O   1f+3       0.000729 -0.000414  0.000627  0.020653  0.000834 -0.000295
  0O   1f-3       0.005444  0.000283 -0.018693  0.002249 -0.008154 -0.004027
  1H   1s         0.331983  0.000224 -0.445962  0.005651 -0.374394  0.100545
  1H   2s        -1.336541  0.008763  3.311554 -0.004679  0.224955  0.591343
  1H   3s         0.281524 -0.005648 -1.594789  0.006815 -0.614599  0.664134
  1H   1pz       -0.426319 -0.016220 -0.518525  0.071926 -0.328326  0.667411
  1H   1px        0.036181 -0.177228  0.100264  1.090971  0.037680 -0.011639
  1H   1py       -0.143621 -0.016445 -1.052856  0.070883 -0.098226 -0.496320
  2H   1s         0.330642  0.005377  0.694886  0.003548 -0.168597  0.164248
  2H   2s        -0.484576 -0.018218 -3.182312  0.006321 -0.842387 -0.367370
  2H   3s         0.168889  0.008935  1.761031 -0.000282  0.029158 -0.515963
  2H   1pz        0.064289 -0.046491 -0.653184 -0.043265 -0.566623 -0.434175
  2H   1px       -0.043953 -0.683708  0.099022 -0.761199  0.012509  0.011408
  2H   1py        0.684888 -0.045178 -0.869055 -0.049931  0.247252  0.262106
                     24        25        26        27        28        29   
                   2.34342   2.42529   2.48205   2.74443   3.38579   3.46644
                   0.00000   0.00000   0.00000   0.00000   0.00000   0.00000
                  --------  --------  --------  --------  --------  --------
  0O   1s        -0.000191 -0.080910  0.087119  0.005837  0.060946  0.001929
  0O   2s        -0.000613 -0.249521  0.298182  0.018676  0.224460  0.003685
  0O   3s         0.003473  1.308983 -2.070006 -0.068878 -1.989305  0.034812
  0O   4s        -0.003647 -1.289046  3.181620 -0.105101  3.212856 -0.324703
  0O   5s         0.002272  1.407796 -1.594998  0.127778 -0.394620  0.068978
  0O   1pz       -0.073074 -0.105725 -0.657795  0.437865  0.682990  0.055042
  0O   1px       -1.170067  0.018491  0.032140 -0.064711 -0.012669 -0.007481
  0O   1py       -0.074190 -0.159908  0.131610  0.576061 -0.482333  0.064379
  0O   2pz        0.100764 -0.449570  0.705474 -0.650303 -1.860646  0.033038
  0O   2px        1.623898 -0.019576 -0.043651  0.113614  0.028616  0.018289
  0O   2py        0.103932  0.722604  0.011896 -1.133063  1.406523 -0.323789
  0O   3pz       -0.043447 -0.404809 -0.275852  0.104491  0.081907  0.043562
  0O   3px       -0.696703  0.015895  0.021151 -0.029131  0.000043 -0.005501
  0O   3py       -0.043765  0.169249 -0.070392  0.349572 -0.083841  0.041499
  0O   1dz2       0.000340 -0.030000 -0.020094 -0.002359  0.006551  0.016464
  0O   1dxz       0.002529  0.002646  0.001835  0.000509 -0.000857 -0.002016
  0O   1dyz       0.000359  0.037816  0.020946 -0.003202  0.006497 -0.003212
  0O   1dx2y2    -0.000342  0.025771  0.014713  0.002160  0.007188 -0.007850
  0O   1dxy       0.001843  0.000908  0.000542  0.000508  0.000376 -0.000782
  0O   2dz2      -0.006493  0.173650 -0.084474  0.530853  0.502804  0.019315
  0O   2dxz      -0.054208  0.005165  0.013034 -0.057722 -0.025181 -0.017290
  0O   2dyz       0.001637 -0.505054  0.014235  0.326201 -0.876890  0.230439
  0O   2dx2y2    -0.009065 -0.128948  0.074750  0.334473 -0.407053 -0.010452
  0O   2dxy       0.094150  0.016033  0.008934  0.021700  0.003740 -0.016011
  0O   1f0        0.000350 -0.011488 -0.014441  0.055564  0.033971  0.057760
  0O   1f+1       0.002930  0.006451  0.005132 -0.004322 -0.006516 -0.011987
  0O   1f-1       0.001215  0.047937  0.030130 -0.006714 -0.094701  0.117683
  0O   1f+2      -0.000775  0.075082  0.047045  0.039631 -0.073743  0.044901
  0O   1f-2       0.008897  0.001867  0.001035  0.003482  0.002778 -0.001185
  0O   1f+3      -0.007258 -0.001371 -0.001117 -0.001958  0.001303  0.015310
  0O   1f-3      -0.000671  0.037823  0.025395  0.025835 -0.037264 -0.062204
  1H   1s         0.000408  0.779016  0.568510  0.369584 -0.051205  1.103305
  1H   2s        -0.003066 -1.683287 -0.835060  0.582239 -1.174349  2.439989
  1H   3s         0.000559  0.214010  0.712529 -0.515324  0.336128 -0.646869
  1H   1pz       -0.017565 -0.640900 -0.063069  0.808238 -1.184080 -1.160124
  1H   1px       -0.253379 -0.017597 -0.019772 -0.036568  0.025392  0.175201
  1H   1py       -0.014311  0.904811  0.358401 -0.244402  0.781412 -1.619626
  2H   1s        -0.000317  0.663484  0.454902  0.650232  0.084302 -1.188344
  2H   2s         0.001641 -0.757698 -0.173426 -1.332751 -0.953514 -2.070576
  2H   3s        -0.000597  0.018752 -0.129097  0.687676  0.184982  0.542400
  2H   1pz        0.006673 -0.257776  0.020847 -0.865753 -0.751510 -1.462017
  2H   1px        0.089704  0.043317  0.014049  0.033908  0.055214  0.175827
  2H   1py        0.004831 -0.408787 -0.228741  0.339698 -0.123141 -1.329233
                     30        31        32        33        34        35   
                   4.92298   4.92946   4.95099   5.02529   5.05686   5.21116
                   0.00000   0.00000   0.00000   0.00000   0.00000   0.00000
                  --------  --------  --------  --------  --------  --------
  0O   1s        -0.000044 -0.000247  0.000036 -0.004032  0.000048 -0.006303
  0O   2s        -0.000222 -0.001099  0.000129 -0.011935  0.000144 -0.020356
  0O   3s         0.003193  0.014197 -0.001142  0.091912 -0.001338  0.202101
  0O   4s        -0.007248 -0.028893  0.000899 -0.023202  0.001882 -0.294597
  0O   5s         0.005442  0.017228  0.001423 -0.124994  0.000335 -0.110374
  0O   1pz       -0.000582 -0.004085  0.000631 -0.065763  0.002016 -0.122340
  0O   1px       -0.000032  0.000436  0.000124  0.002822  0.021356  0.007351
  0O   1py       -0.000259 -0.000791 -0.000565  0.021118  0.001281  0.004636
  0O   2pz        0.003749  0.017393 -0.000737  0.119056 -0.004203  0.322608
  0O   2px        0.001507 -0.001987  0.009883 -0.007048 -0.040276 -0.016822
  0O   2py        0.000125 -0.000511  0.001763 -0.006580 -0.002148 -0.054531
  0O   3pz       -0.003227 -0.009903 -0.002282  0.035877 -0.002605  0.065763
  0O   3px       -0.004416  0.002427 -0.027502 -0.000748 -0.039376 -0.003446
  0O   3py        0.000737  0.002840 -0.001507 -0.029912 -0.002314 -0.014311
  0O   1dz2       0.001841 -0.000901  0.007377 -0.091640  0.010858 -0.293139
  0O   1dxz       0.011623 -0.004599  0.060081  0.012576  0.088133  0.023003
  0O   1dyz       0.000468  0.000040  0.002901  0.030535 -0.001707  0.047883
  0O   1dx2y2    -0.002905 -0.008013 -0.005057  0.059389  0.009087 -0.085706
  0O   1dxy       0.002389 -0.001417  0.000060  0.005767 -0.114328 -0.014080
  0O   2dz2      -0.001491 -0.004992 -0.000646 -0.029990  0.002052 -0.091069
  0O   2dxz      -0.003101  0.001488 -0.007633  0.003878  0.016707  0.007317
  0O   2dyz       0.000201  0.002361 -0.000864  0.002047 -0.000382  0.057073
  0O   2dx2y2     0.001120  0.003296  0.000572  0.009927  0.000830  0.008036
  0O   2dxy      -0.002011  0.000613 -0.001086  0.000958 -0.016199 -0.002655
  0O   1f0       -0.036170 -0.123028 -0.158015  0.490796 -0.032810  0.781678
  0O   1f+1       0.037782  0.127313 -0.959088 -0.147348 -0.197928 -0.075344
  0O   1f-1      -0.040593 -0.341332 -0.088887  0.385062  0.071329 -0.542885
  0O   1f+2       0.042350  0.629447  0.128609 -0.368212 -0.043117  0.121272
  0O   1f-2       0.564098  0.017514 -0.140860 -0.032192  0.820590  0.053879
  0O   1f+3       0.821849 -0.060319  0.123455  0.099675 -0.548920 -0.035607
  0O   1f-3       0.015056 -0.672277 -0.001477 -0.663581 -0.037507  0.233838
  1H   1s        -0.011385 -0.040326 -0.000840 -0.097061  0.000087  0.019944
  1H   2s        -0.018676 -0.070429  0.002725 -0.643009 -0.000047  0.320109
  1H   3s         0.005528  0.022858 -0.001574  0.282342 -0.000517 -0.004527
  1H   1pz        0.008674  0.034961 -0.004864  0.357419  0.017181 -0.232782
  1H   1px       -0.003779 -0.000435 -0.030081 -0.046204  0.279117  0.034376
  1H   1py        0.003516  0.015195 -0.003939  0.381270  0.018074 -0.300406
  2H   1s         0.001761  0.008028 -0.001845  0.262748  0.000012 -0.151416
  2H   2s         0.022606  0.087537 -0.003453  0.674034 -0.001513  0.055489
  2H   3s        -0.007870 -0.030910  0.001227 -0.243798  0.000568 -0.002441
  2H   1pz        0.014390  0.051053  0.006809  0.401096 -0.005434  0.238047
  2H   1px        0.018018 -0.017639  0.138980 -0.035840 -0.062617 -0.000347
  2H   1py        0.020283  0.067062  0.008945  0.188111 -0.003826 -0.233879
                     36        37        38        39        40        41   
                   5.47873   5.96542   5.96855   6.04866   6.29259   6.55996
                   0.00000   0.00000   0.00000   0.00000   0.00000   0.00000
                  --------  --------  --------  --------  --------  --------
  0O   1s        -0.013249 -0.000049  0.000646  0.000007  0.000716  0.014743
  0O   2s        -0.044875 -0.000209  0.002667  0.000024  0.004014  0.044898
  0O   3s         0.527097  0.003380 -0.041762 -0.000273 -0.090641 -0.535842
  0O   4s        -0.987964 -0.008947  0.111141  0.000280  0.294312  0.771424
  0O   5s         0.029405  0.002262 -0.033263  0.000451 -0.112450  0.624765
  0O   1pz       -0.140987 -0.000400  0.007475  0.000789 -0.030112  0.214655
  0O   1px       -0.002021  0.003787  0.000267  0.010050  0.006082 -0.003192
  0O   1py        0.172401  0.000846 -0.006856  0.000593 -0.065303 -0.163743
  0O   2pz        0.557949  0.003772 -0.053140 -0.002036 -0.030460 -0.726303
  0O   2px        0.004339 -0.011776 -0.000595 -0.024090 -0.014925  0.007885
  0O   2py       -0.626196 -0.004872  0.048355 -0.001402  0.265768  0.600156
  0O   3pz       -0.008735  0.000025  0.008732 -0.003102  0.123034 -0.354019
  0O   3px       -0.000121  0.007782  0.000711 -0.043702 -0.012413  0.006846
  0O   3py        0.009553  0.001206 -0.008775 -0.002808  0.073564  0.245913
  0O   1dz2       0.011611  0.067503  0.184503 -0.098159  0.992802 -0.580125
  0O   1dxz      -0.018252  0.745976 -0.056221 -0.889223 -0.109917  0.032667
  0O   1dyz       0.462262  0.059992  0.545558 -0.008334  0.387142  0.892756
  0O   1dx2y2     0.208105 -0.078159 -1.004472 -0.040919  0.397065  0.400820
  0O   1dxy      -0.003518  0.886652 -0.091684  0.749466  0.025868 -0.005729
  0O   2dz2      -0.084383 -0.036442 -0.078198  0.057835 -0.736614  0.613600
  0O   2dxz       0.003256 -0.384916  0.029132  0.519276  0.084008 -0.031202
  0O   2dyz       0.208806 -0.028410 -0.317432  0.004693 -0.391061 -1.048091
  0O   2dx2y2     0.105647  0.041770  0.515850  0.023924 -0.354759 -0.477385
  0O   2dxy       0.000415 -0.466678  0.048612 -0.438582 -0.020142  0.005837
  0O   1f0       -0.282555  0.005373 -0.002241 -0.012884  0.339541 -0.041545
  0O   1f+1       0.020289  0.030837 -0.002081 -0.076733 -0.035280  0.016819
  0O   1f-1      -0.623347 -0.002371  0.080169  0.007902  0.038698  0.384382
  0O   1f+2      -0.616966 -0.004959 -0.001285 -0.002194  0.200564  0.347195
  0O   1f-2       0.000765  0.026684 -0.003560  0.122050  0.013659 -0.005321
  0O   1f+3      -0.007354 -0.030086  0.004041 -0.070716 -0.002798  0.000451
  0O   1f-3      -0.211545 -0.000391 -0.030956 -0.004074  0.096279  0.139802
  1H   1s         0.450829  0.002639 -0.029939  0.000027 -0.195478 -0.380630
  1H   2s         0.773547  0.018167 -0.222752  0.000228 -0.625076 -0.957301
  1H   3s        -0.182972 -0.006395  0.079619 -0.000177  0.137924  0.039832
  1H   1pz        0.437169 -0.001748  0.072763  0.011627 -0.307584 -0.517553
  1H   1px        0.016004  0.066020 -0.010899  0.180564  0.004882  0.000539
  1H   1py       -0.692185 -0.010501  0.176576  0.011725  0.233190  0.509328
  2H   1s        -0.151297 -0.007331  0.089192  0.000217  0.014143 -0.004453
  2H   2s        -0.227589 -0.011134  0.141695 -0.001115  0.634213 -0.304526
  2H   3s         0.111094  0.004808 -0.059341  0.000178 -0.119050 -0.010211
  2H   1pz       -0.164257 -0.009977  0.057477  0.002227  0.397663 -0.252285
  2H   1px        0.012942 -0.086595 -0.012615  0.047756 -0.016780  0.010912
  2H   1py       -0.037050 -0.008207  0.030903  0.003257 -0.128456  0.078433
                     42   
                  42.47561
                   0.00000
                  --------
  0O   1s        -1.388442
  0O   2s         1.687884
  0O   3s        -1.486128
  0O   4s         1.423313
  0O   5s        -0.525308
  0O   1pz        0.039066
  0O   1px       -0.000575
  0O   1py       -0.029939
  0O   2pz       -0.155972
  0O   2px        0.001857
  0O   2py        0.126504
  0O   3pz        0.030963
  0O   3px        0.000238
  0O   3py       -0.034781
  0O   1dz2      -0.011434
  0O   1dxz       0.000646
  0O   1dyz       0.017013
  0O   1dx2y2     0.007417
  0O   1dxy      -0.000134
  0O   2dz2       0.050647
  0O   2dxz      -0.002454
  0O   2dyz      -0.090181
  0O   2dx2y2    -0.041274
  0O   2dxy       0.000470
  0O   1f0       -0.002895
  0O   1f+1       0.001096
  0O   1f-1       0.024366
  0O   1f+2       0.021824
  0O   1f-2      -0.000371
  0O   1f+3      -0.000033
  0O   1f-3       0.009070
  1H   1s        -0.024316
  1H   2s        -0.143256
  1H   3s         0.149934
  1H   1pz       -0.105589
  1H   1px        0.001363
  1H   1py        0.083949
  2H   1s         0.007244
  2H   2s        -0.063945
  2H   3s         0.010177
  2H   1pz       -0.067028
  2H   1px        0.004362
  2H   1py       -0.002284
-------------------
DFT GRID GENERATION
-------------------

General Integration Accuracy     IntAcc      ... 4.388
Radial Grid Type                 RadialGrid  ... OptM3 with GC (2021)
Angular Grid (max. ang.)         AngularGrid ... 4 (Lebedev-302)
Angular grid pruning method      GridPruning ... 4 (adaptive)
Weight generation scheme         WeightScheme... Becke
Basis function cutoff            BFCut       ... 1.0000e-11
Integration weight cutoff        WCut        ... 1.0000e-14
Angular grids for H and He will be reduced by one unit
Partially contracted basis set               ... off
Rotationally invariant grid construction     ... off

Total number of grid points                  ...    12765
Total number of batches                      ...      201
Average number of points per batch           ...       63
Average number of grid points per atom       ...     4255
Time for grid setup =    0.074 sec

--------------------
COSX GRID GENERATION
--------------------

GRIDX 1
-------
General Integration Accuracy     IntAcc      ... 3.816
Radial Grid Type                 RadialGrid  ... OptM3 with GC (2021)
Angular Grid (max. ang.)         AngularGrid ... 1 (Lebedev-50)
Angular grid pruning method      GridPruning ... 4 (adaptive)
Weight generation scheme         WeightScheme... Becke
Basis function cutoff            BFCut       ... 1.0000e-11
Integration weight cutoff        WCut        ... 1.0000e-14
Angular grids for H and He will be reduced by one unit
Partially contracted basis set               ... on
Rotationally invariant grid construction     ... off

Total number of grid points                  ...     1645
Total number of batches                      ...       27
Average number of points per batch           ...       60
Average number of grid points per atom       ...      548
UseSFitting                                  ... on

GRIDX 2
-------
General Integration Accuracy     IntAcc      ... 4.020
Radial Grid Type                 RadialGrid  ... OptM3 with GC (2021)
Angular Grid (max. ang.)         AngularGrid ... 2 (Lebedev-110)
Angular grid pruning method      GridPruning ... 4 (adaptive)
Weight generation scheme         WeightScheme... Becke
Basis function cutoff            BFCut       ... 1.0000e-11
Integration weight cutoff        WCut        ... 1.0000e-14
Angular grids for H and He will be reduced by one unit
Partially contracted basis set               ... on
Rotationally invariant grid construction     ... off

Total number of grid points                  ...     3496
Total number of batches                      ...       57
Average number of points per batch           ...       61
Average number of grid points per atom       ...     1165
UseSFitting                                  ... on

GRIDX 3
-------
General Integration Accuracy     IntAcc      ... 4.338
Radial Grid Type                 RadialGrid  ... OptM3 with GC (2021)
Angular Grid (max. ang.)         AngularGrid ... 3 (Lebedev-194)
Angular grid pruning method      GridPruning ... 4 (adaptive)
Weight generation scheme         WeightScheme... Becke
Basis function cutoff            BFCut       ... 1.0000e-11
Integration weight cutoff        WCut        ... 1.0000e-14
Angular grids for H and He will be reduced by one unit
Partially contracted basis set               ... on
Rotationally invariant grid construction     ... off

Total number of grid points                  ...     7777
Total number of batches                      ...      123
Average number of points per batch           ...       63
Average number of grid points per atom       ...     2592
UseSFitting                                  ... on

Time for X-Grid setup             =    0.091 sec

--------------
SCF ITERATIONS
--------------
               ***  Starting incremental Fock matrix formation  ***
==>> SHARK/AuxDens: NDens=1 Thresh =     2.500000e-11 TCut=    2.500000e-12 Lmax=3 LmaxAux=4
    -> Making Hermite density - ok     0.000 sec
    -> Making Aux-basis density - (lmax=3)
    -> L=0 0:    0.000 sec done=      1650 (100.0%) skipped=         0 
    -> L=1 0:    0.001 sec done=      1375 (100.0%) skipped=         0 
    -> L=1 1:    0.000 sec done=       375 (100.0%) skipped=         0 
    -> L=2 0:    0.000 sec done=       550 (100.0%) skipped=         0 
    -> L=2 1:    0.000 sec done=       250 (100.0%) skipped=         0 
    -> L=2 2:    0.000 sec done=        75 (100.0%) skipped=         0 
    -> L=3 0:    0.000 sec done=       275 (100.0%) skipped=         0 
    -> L=3 1:    0.000 sec done=       125 (100.0%) skipped=         0 
    -> L=3 2:    0.000 sec done=        50 (100.0%) skipped=         0 
    -> L=3 3:    0.000 sec done=        25 (100.0%) skipped=         0 
    -> Aux basis density formed in    0.0 sec
    -> Solving linear equations - ok (   0.0 sec)
        Auxbasis Hermite Density:
        P|s>                     ...  0.000
        P|p>                     ...  0.000
        P|d>                     ...  0.000
        P|f>                     ...  0.000
        P|g>                     ...  0.000
        Building the Coulomb matrix: 
        J|ss>                          ... done (  0.0 sec) ndone=     9086 nskipped1=        0 nskipped2=      234
        J|ps>                          ... done (  0.0 sec) ndone=     6474 nskipped1=        0 nskipped2=       46
        J|pp>                          ... done (  0.0 sec) ndone=     1680 nskipped1=        0 nskipped2=        0
        J|ds>                          ... done (  0.0 sec) ndone=     1680 nskipped1=        0 nskipped2=        0
        J|dp>                          ... done (  0.0 sec) ndone=      640 nskipped1=        0 nskipped2=        0
        J|dd>                          ... done (  0.0 sec) ndone=      120 nskipped1=        0 nskipped2=        0
        J|fs>                          ... done (  0.0 sec) ndone=      840 nskipped1=        0 nskipped2=        0
        J|fp>                          ... done (  0.0 sec) ndone=      320 nskipped1=        0 nskipped2=        0
        J|fd>                          ... done (  0.0 sec) ndone=       80 nskipped1=        0 nskipped2=        0
        J|ff>                          ... done (  0.0 sec) ndone=       40 nskipped1=        0 nskipped2=        0
        Coulomb matrix built in   0.0 sec

        Total time for Split-RI-J                ...    0.006 sec
          (0) Prelude                            ...    0.000 sec
          (1) Hermite density                    ...    0.000 sec
          (2) Aux basis density                  ...    0.000 sec (inner=  0.0)
          (3) Linear equation solution           ...    0.000 sec
          (4) J-Matrix construction              ...    0.002 sec (inner=  0.0)
        ---------------------------------------------------------

                         ----------------------------
                         !        ITERATION     0   !
                         ----------------------------
   Total Energy        :     -76.174779538049 Eh
   Energy Change       :     -76.174779538049 Eh
   MAX-DP              :       0.051503025188
   RMS-DP              :       0.004228081955
   Actual Damping      :       0.7000
   Actual Level Shift  :       0.2500 Eh
   Int. Num. El.       :     9.99999962 (UP=    4.99999981 DN=    4.99999981)
   Exchange            :    -7.19767362
   Correlation         :    -0.40193477

==>> SHARK/AuxDens: NDens=1 Thresh =     2.500000e-11 TCut=    2.500000e-12 Lmax=3 LmaxAux=4
    -> Making Hermite density - ok     0.001 sec
    -> Making Aux-basis density - (lmax=3)
    -> L=0 0:    0.000 sec done=      1650 (100.0%) skipped=         0 
    -> L=1 0:    0.000 sec done=      1375 (100.0%) skipped=         0 
    -> L=1 1:    0.000 sec done=       375 (100.0%) skipped=         0 
    -> L=2 0:    0.000 sec done=       550 (100.0%) skipped=         0 
    -> L=2 1:    0.000 sec done=       250 (100.0%) skipped=         0 
    -> L=2 2:    0.000 sec done=        75 (100.0%) skipped=         0 
    -> L=3 0:    0.000 sec done=       275 (100.0%) skipped=         0 
    -> L=3 1:    0.000 sec done=       125 (100.0%) skipped=         0 
    -> L=3 2:    0.000 sec done=        50 (100.0%) skipped=         0 
    -> L=3 3:    0.000 sec done=        25 (100.0%) skipped=         0 
    -> Aux basis density formed in    0.0 sec
    -> Solving linear equations - ok (   0.0 sec)
        Auxbasis Hermite Density:
        P|s>                     ...  0.000
        P|p>                     ...  0.000
        P|d>                     ...  0.000
        P|f>                     ...  0.000
        P|g>                     ...  0.000
        Building the Coulomb matrix: 
        J|ss>                          ... done (  0.0 sec) ndone=     9086 nskipped1=        0 nskipped2=      234
        J|ps>                          ... done (  0.0 sec) ndone=     6474 nskipped1=        0 nskipped2=       46
        J|pp>                          ... done (  0.0 sec) ndone=     1680 nskipped1=        0 nskipped2=        0
        J|ds>                          ... done (  0.0 sec) ndone=     1680 nskipped1=        0 nskipped2=        0
        J|dp>                          ... done (  0.0 sec) ndone=      640 nskipped1=        0 nskipped2=        0
        J|dd>                          ... done (  0.0 sec) ndone=      120 nskipped1=        0 nskipped2=        0
        J|fs>                          ... done (  0.0 sec) ndone=      840 nskipped1=        0 nskipped2=        0
        J|fp>                          ... done (  0.0 sec) ndone=      320 nskipped1=        0 nskipped2=        0
        J|fd>                          ... done (  0.0 sec) ndone=       80 nskipped1=        0 nskipped2=        0
        J|ff>                          ... done (  0.0 sec) ndone=       40 nskipped1=        0 nskipped2=        0
        Coulomb matrix built in   0.0 sec

        Total time for Split-RI-J                ...    0.006 sec
          (0) Prelude                            ...    0.000 sec
          (1) Hermite density                    ...    0.000 sec
          (2) Aux basis density                  ...    0.000 sec (inner=  0.0)
          (3) Linear equation solution           ...    0.000 sec
          (4) J-Matrix construction              ...    0.002 sec (inner=  0.0)
        ---------------------------------------------------------

                         ----------------------------
                         !        ITERATION     1   !
                         ----------------------------
   Total Energy        :     -76.214531317866 Eh
   Energy Change       :      -0.039751779817 Eh
   MAX-DP              :       0.026984427256
   RMS-DP              :       0.002692904092
   Actual Damping      :       0.7000
   Actual Level Shift  :       0.2500 Eh
   Int. Num. El.       :     9.99999973 (UP=    4.99999986 DN=    4.99999986)
   Exchange            :    -7.07680791
   Correlation         :    -0.39714706

==>> SHARK/AuxDens: NDens=1 Thresh =     2.500000e-11 TCut=    2.500000e-12 Lmax=3 LmaxAux=4
    -> Making Hermite density - ok     0.000 sec
    -> Making Aux-basis density - (lmax=3)
    -> L=0 0:    0.000 sec done=      1650 (100.0%) skipped=         0 
    -> L=1 0:    0.001 sec done=      1375 (100.0%) skipped=         0 
    -> L=1 1:    0.000 sec done=       375 (100.0%) skipped=         0 
    -> L=2 0:    0.000 sec done=       550 (100.0%) skipped=         0 
    -> L=2 1:    0.000 sec done=       250 (100.0%) skipped=         0 
    -> L=2 2:    0.000 sec done=        75 (100.0%) skipped=         0 
    -> L=3 0:    0.000 sec done=       275 (100.0%) skipped=         0 
    -> L=3 1:    0.000 sec done=       125 (100.0%) skipped=         0 
    -> L=3 2:    0.000 sec done=        50 (100.0%) skipped=         0 
    -> L=3 3:    0.000 sec done=        25 (100.0%) skipped=         0 
    -> Aux basis density formed in    0.0 sec
    -> Solving linear equations - ok (   0.0 sec)
        Auxbasis Hermite Density:
        P|s>                     ...  0.000
        P|p>                     ...  0.000
        P|d>                     ...  0.000
        P|f>                     ...  0.000
        P|g>                     ...  0.000
        Building the Coulomb matrix: 
        J|ss>                          ... done (  0.0 sec) ndone=     9086 nskipped1=        0 nskipped2=      234
        J|ps>                          ... done (  0.0 sec) ndone=     6474 nskipped1=        0 nskipped2=       46
        J|pp>                          ... done (  0.0 sec) ndone=     1680 nskipped1=        0 nskipped2=        0
        J|ds>                          ... done (  0.0 sec) ndone=     1680 nskipped1=        0 nskipped2=        0
        J|dp>                          ... done (  0.0 sec) ndone=      640 nskipped1=        0 nskipped2=        0
        J|dd>                          ... done (  0.0 sec) ndone=      120 nskipped1=        0 nskipped2=        0
        J|fs>                          ... done (  0.0 sec) ndone=      840 nskipped1=        0 nskipped2=        0
        J|fp>                          ... done (  0.0 sec) ndone=      320 nskipped1=        0 nskipped2=        0
        J|fd>                          ... done (  0.0 sec) ndone=       80 nskipped1=        0 nskipped2=        0
        J|ff>                          ... done (  0.0 sec) ndone=       40 nskipped1=        0 nskipped2=        0
        Coulomb matrix built in   0.0 sec

        Total time for Split-RI-J                ...    0.006 sec
          (0) Prelude                            ...    0.000 sec
          (1) Hermite density                    ...    0.000 sec
          (2) Aux basis density                  ...    0.000 sec (inner=  0.0)
          (3) Linear equation solution           ...    0.000 sec
          (4) J-Matrix construction              ...    0.002 sec (inner=  0.0)
        ---------------------------------------------------------
                               ***Turning on DIIS***

                         ----------------------------
                         !        ITERATION     2   !
                         ----------------------------
   Total Energy        :     -76.224386837513 Eh
   Energy Change       :      -0.009855519647 Eh
   MAX-DP              :       0.041307146224
   RMS-DP              :       0.002871604446
   Actual Damping      :       0.0000
   Actual Level Shift  :       0.2500 Eh
   Int. Num. El.       :     9.99999985 (UP=    4.99999993 DN=    4.99999993)
   Exchange            :    -7.01845102
   Correlation         :    -0.39463893
   DIIS-Error          :       0.019211177403

==>> SHARK/AuxDens: NDens=1 Thresh =     2.500000e-11 TCut=    2.500000e-12 Lmax=3 LmaxAux=4
    -> Making Hermite density - ok     0.000 sec
    -> Making Aux-basis density - (lmax=3)
    -> L=0 0:    0.000 sec done=      1650 (100.0%) skipped=         0 
    -> L=1 0:    0.000 sec done=      1375 (100.0%) skipped=         0 
    -> L=1 1:    0.000 sec done=       375 (100.0%) skipped=         0 
    -> L=2 0:    0.000 sec done=       550 (100.0%) skipped=         0 
    -> L=2 1:    0.000 sec done=       250 (100.0%) skipped=         0 
    -> L=2 2:    0.000 sec done=        75 (100.0%) skipped=         0 
    -> L=3 0:    0.000 sec done=       275 (100.0%) skipped=         0 
    -> L=3 1:    0.000 sec done=       125 (100.0%) skipped=         0 
    -> L=3 2:    0.000 sec done=        50 (100.0%) skipped=         0 
    -> L=3 3:    0.000 sec done=        25 (100.0%) skipped=         0 
    -> Aux basis density formed in    0.0 sec
    -> Solving linear equations - ok (   0.0 sec)
        Auxbasis Hermite Density:
        P|s>                     ...  0.000
        P|p>                     ...  0.000
        P|d>                     ...  0.000
        P|f>                     ...  0.000
        P|g>                     ...  0.000
        Building the Coulomb matrix: 
        J|ss>                          ... done (  0.0 sec) ndone=     9086 nskipped1=        0 nskipped2=      234
        J|ps>                          ... done (  0.0 sec) ndone=     6474 nskipped1=        0 nskipped2=       46
        J|pp>                          ... done (  0.0 sec) ndone=     1680 nskipped1=        0 nskipped2=        0
        J|ds>                          ... done (  0.0 sec) ndone=     1680 nskipped1=        0 nskipped2=        0
        J|dp>                          ... done (  0.0 sec) ndone=      640 nskipped1=        0 nskipped2=        0
        J|dd>                          ... done (  0.0 sec) ndone=      120 nskipped1=        0 nskipped2=        0
        J|fs>                          ... done (  0.0 sec) ndone=      840 nskipped1=        0 nskipped2=        0
        J|fp>                          ... done (  0.0 sec) ndone=      320 nskipped1=        0 nskipped2=        0
        J|fd>                          ... done (  0.0 sec) ndone=       80 nskipped1=        0 nskipped2=        0
        J|ff>                          ... done (  0.0 sec) ndone=       40 nskipped1=        0 nskipped2=        0
        Coulomb matrix built in   0.0 sec

        Total time for Split-RI-J                ...    0.005 sec
          (0) Prelude                            ...    0.000 sec
          (1) Hermite density                    ...    0.000 sec
          (2) Aux basis density                  ...    0.000 sec (inner=  0.0)
          (3) Linear equation solution           ...    0.000 sec
          (4) J-Matrix construction              ...    0.002 sec (inner=  0.0)
        ---------------------------------------------------------

                         ----------------------------
                         !        ITERATION     3   !
                         ----------------------------
   Total Energy        :     -76.245080731737 Eh
   Energy Change       :      -0.020693894224 Eh
   MAX-DP              :       0.022184400500
   RMS-DP              :       0.001935360561
   Actual Damping      :       0.0000
   Actual Level Shift  :       0.2500 Eh
   Int. Num. El.       :     9.99999991 (UP=    4.99999996 DN=    4.99999996)
   Exchange            :    -6.99151623
   Correlation         :    -0.39308274
   DIIS-Error          :       0.059045550765
   DIIS coefficients:
      0.80644   0.19356

==>> SHARK/AuxDens: NDens=1 Thresh =     2.500000e-11 TCut=    2.500000e-12 Lmax=3 LmaxAux=4
    -> Making Hermite density - ok     0.000 sec
    -> Making Aux-basis density - (lmax=3)
    -> L=0 0:    0.001 sec done=      1650 (100.0%) skipped=         0 
    -> L=1 0:    0.000 sec done=      1375 (100.0%) skipped=         0 
    -> L=1 1:    0.000 sec done=       375 (100.0%) skipped=         0 
    -> L=2 0:    0.000 sec done=       550 (100.0%) skipped=         0 
    -> L=2 1:    0.000 sec done=       250 (100.0%) skipped=         0 
    -> L=2 2:    0.000 sec done=        75 (100.0%) skipped=         0 
    -> L=3 0:    0.000 sec done=       275 (100.0%) skipped=         0 
    -> L=3 1:    0.000 sec done=       125 (100.0%) skipped=         0 
    -> L=3 2:    0.000 sec done=        50 (100.0%) skipped=         0 
    -> L=3 3:    0.000 sec done=        25 (100.0%) skipped=         0 
    -> Aux basis density formed in    0.0 sec
    -> Solving linear equations - ok (   0.0 sec)
        Auxbasis Hermite Density:
        P|s>                     ...  0.000
        P|p>                     ...  0.000
        P|d>                     ...  0.000
        P|f>                     ...  0.000
        P|g>                     ...  0.000
        Building the Coulomb matrix: 
        J|ss>                          ... done (  0.0 sec) ndone=     9086 nskipped1=        0 nskipped2=      234
        J|ps>                          ... done (  0.0 sec) ndone=     6474 nskipped1=        0 nskipped2=       46
        J|pp>                          ... done (  0.0 sec) ndone=     1680 nskipped1=        0 nskipped2=        0
        J|ds>                          ... done (  0.0 sec) ndone=     1680 nskipped1=        0 nskipped2=        0
        J|dp>                          ... done (  0.0 sec) ndone=      640 nskipped1=        0 nskipped2=        0
        J|dd>                          ... done (  0.0 sec) ndone=      120 nskipped1=        0 nskipped2=        0
        J|fs>                          ... done (  0.0 sec) ndone=      840 nskipped1=        0 nskipped2=        0
        J|fp>                          ... done (  0.0 sec) ndone=      320 nskipped1=        0 nskipped2=        0
        J|fd>                          ... done (  0.0 sec) ndone=       80 nskipped1=        0 nskipped2=        0
        J|ff>                          ... done (  0.0 sec) ndone=       40 nskipped1=        0 nskipped2=        0
        Coulomb matrix built in   0.0 sec

        Total time for Split-RI-J                ...    0.006 sec
          (0) Prelude                            ...    0.000 sec
          (1) Hermite density                    ...    0.000 sec
          (2) Aux basis density                  ...    0.000 sec (inner=  0.0)
          (3) Linear equation solution           ...    0.000 sec
          (4) J-Matrix construction              ...    0.002 sec (inner=  0.0)
        ---------------------------------------------------------

                         ----------------------------
                         !        ITERATION     4   !
                         ----------------------------
   Total Energy        :     -76.249164403295 Eh
   Energy Change       :      -0.004083671558 Eh
   MAX-DP              :       0.008517303313
   RMS-DP              :       0.000583469882
   Actual Damping      :       0.0000
   Actual Level Shift  :       0.2500 Eh
   Int. Num. El.       :     9.99999978 (UP=    4.99999989 DN=    4.99999989)
   Exchange            :    -7.02834524
   Correlation         :    -0.39465940
   DIIS-Error          :       0.007508959964
   DIIS coefficients:
      0.09972  -0.03542   0.93570

==>> SHARK/AuxDens: NDens=1 Thresh =     2.500000e-11 TCut=    2.500000e-12 Lmax=3 LmaxAux=4
    -> Making Hermite density - ok     0.001 sec
    -> Making Aux-basis density - (lmax=3)
    -> L=0 0:    0.001 sec done=      1650 (100.0%) skipped=         0 
    -> L=1 0:    0.001 sec done=      1375 (100.0%) skipped=         0 
    -> L=1 1:    0.000 sec done=       375 (100.0%) skipped=         0 
[...]
----------------------

Number of atoms                             ...      3
Number of basis functions                   ...     43
Number of shells                            ...     19
Maximum angular momentum                    ...      3
Integral batch strategy                     ... SHARK/LIBINT Hybrid
RI-J (if used) integral strategy            ... SPLIT-RIJ (Revised 2003 algorithm where possible)
Printlevel                                  ...      2
Contraction scheme used                     ... SEGMENTED contraction
Coulomb Range Separation                    ... NOT USED
Exchange Range Separation                   ... NOT USED
Finite Nucleus Model                        ... NOT USED
Auxiliary Coulomb fitting basis             ... AVAILABLE
   # of basis functions in Aux-J            ...     71
   # of shells in Aux-J                     ...     25
   Maximum angular momentum in Aux-J        ...      4
Auxiliary J/K fitting basis                 ... NOT available
Auxiliary Correlation fitting basis         ... NOT available
Auxiliary 'external' fitting basis          ... NOT available
Integral threshold                          ...     2.500000e-11
Primitive cut-off                           ...     2.500000e-12
Primitive pair pre-selection threshold      ...     2.500000e-12

     CP-SCF ITERATION   0:   1.6735e-01 (   0.2 sec   0/  9 done)
     CP-SCF ITERATION   1:   1.6251e-02 (   0.2 sec   0/  9 done)
     CP-SCF ITERATION   2:   2.4232e-03 (   0.2 sec   0/  9 done)
     CP-SCF ITERATION   3:   2.9950e-04 (   0.2 sec   1/  9 done)
     CP-SCF ITERATION   4:   5.3575e-05 (   0.2 sec   9/  9 done)
                    *** THE CP-SCF HAS CONVERGED ***

                                                 ... done   (      0.9 sec)
Forming perturbed density Hessian contributions  ... done   (      0.0 sec)
2nd integral derivative contribs (SHARK-RI)      ... ==>> SHARK/AuxDens: NDens=1 Thresh =     2.500000e-11 TCut=    2.500000e-12 Lmax=3 LmaxAux=4
    -> Making Hermite density - ok     0.000 sec
    -> Making Aux-basis density - (lmax=3)
    -> L=0 0:    0.000 sec done=      1650 (100.0%) skipped=         0 
    -> L=1 0:    0.000 sec done=      1375 (100.0%) skipped=         0 
    -> L=1 1:    0.000 sec done=       375 (100.0%) skipped=         0 
    -> L=2 0:    0.000 sec done=       550 (100.0%) skipped=         0 
    -> L=2 1:    0.000 sec done=       250 (100.0%) skipped=         0 
    -> L=2 2:    0.000 sec done=        75 (100.0%) skipped=         0 
    -> L=3 0:    0.000 sec done=       275 (100.0%) skipped=         0 
    -> L=3 1:    0.000 sec done=       125 (100.0%) skipped=         0 
    -> L=3 2:    0.000 sec done=        50 (100.0%) skipped=         0 
    -> L=3 3:    0.000 sec done=        25 (100.0%) skipped=         0 
    -> Aux basis density formed in    0.0 sec
    -> Solving linear equations - ok (   0.0 sec)
    -> Making Gradient pre-screening matrices - done (  0.0 sec)
    -> Making Aux_E - done (  0.0 sec)
Second derivative 2-index Hessian     ... done (  0.0 sec)
Second derivative 3-index Hessian     ...     -> L=0 0 :     0.005 sec done=      1365 skipped=       285 prim-skipped=         0
    -> L=1 0 :     0.006 sec done=      1120 skipped=       255 prim-skipped=         0
    -> L=1 1 :     0.003 sec done=       275 skipped=       100 prim-skipped=         0
    -> L=2 0 :     0.004 sec done=       400 skipped=       150 prim-skipped=         0
    -> L=2 1 :     0.003 sec done=       160 skipped=        90 prim-skipped=         0
    -> L=2 2 :     0.002 sec done=        30 skipped=        45 prim-skipped=         0
    -> L=3 0 :     0.003 sec done=       200 skipped=        75 prim-skipped=         0
    -> L=3 1 :     0.002 sec done=        80 skipped=        45 prim-skipped=         0
    -> L=3 2 :     0.001 sec done=        20 skipped=        30 prim-skipped=         0
    -> L=3 3 :     0.002 sec done=        10 skipped=        15 prim-skipped=         0
done (  0.0 sec)
First derivative 2-index x PAUX       ... done (  0.0 sec)
First derivative 3-index x PTOT       ...     -> L=0 0 :     0.001 sec done=      1365 skipped=       285 prim-skipped=         0
    -> L=1 0 :     0.001 sec done=      1120 skipped=       255 prim-skipped=         0
    -> L=1 1 :     0.001 sec done=       275 skipped=       100 prim-skipped=         0
    -> L=2 0 :     0.001 sec done=       400 skipped=       150 prim-skipped=         0
    -> L=2 1 :     0.000 sec done=       160 skipped=        90 prim-skipped=         0
    -> L=2 2 :     0.000 sec done=        30 skipped=        45 prim-skipped=         0
    -> L=3 0 :     0.000 sec done=       200 skipped=        75 prim-skipped=         0
    -> L=3 1 :     0.000 sec done=        80 skipped=        45 prim-skipped=         0
    -> L=3 2 :     0.000 sec done=        20 skipped=        30 prim-skipped=         0
    -> L=3 3 :     0.000 sec done=        10 skipped=        15 prim-skipped=         0
done (  0.0 sec)
Solving linear equations              ... done (  0.0 sec)
1st derivative integral Hessian terms ... done (  0.0 sec)
SHARK RIJ Hessian completed           ...   0.1 sec ===>>> SHARK/SCF/2el Hess HFTyp=1 DoJ=0 DoX=1 ScalHFX=    0.200 ForceLibInt=1 UseGC
    -> Making Gradient pre-screening matrices - done (  0.0 sec)
    -> L=0 0 0 0:     0.009 sec done=      1089 (=100.0%) skipped=         0 
    -> L=0 0 0 1:     0.042 sec done=      1815 (=100.0%) skipped=         0 
    -> L=0 0 0 2:     0.010 sec done=       726 (=100.0%) skipped=         0 
    -> L=0 0 0 3:     0.007 sec done=       363 (=100.0%) skipped=         0 
    -> L=0 0 1 1:     0.014 sec done=       495 (=100.0%) skipped=         0 
    -> L=0 0 1 2:     0.010 sec done=       330 (=100.0%) skipped=         0 
    -> L=0 0 1 3:     0.006 sec done=       165 (=100.0%) skipped=         0 
    -> L=0 0 2 2:     0.005 sec done=        99 (=100.0%) skipped=         0 
    -> L=0 0 2 3:     0.004 sec done=        66 (=100.0%) skipped=         0 
    -> L=0 0 3 3:     0.004 sec done=        33 (=100.0%) skipped=         0 
    -> L=0 1 0 1:     0.014 sec done=       784 (=100.0%) skipped=         0 
    -> L=0 1 0 2:     0.015 sec done=       616 (=100.0%) skipped=         0 
    -> L=0 1 0 3:     0.010 sec done=       308 (=100.0%) skipped=         0 
    -> L=0 1 1 1:     0.021 sec done=       420 (=100.0%) skipped=         0 
    -> L=0 1 1 2:     0.016 sec done=       280 (=100.0%) skipped=         0 
    -> L=0 1 1 3:     0.014 sec done=       140 (=100.0%) skipped=         0 
    -> L=0 1 2 2:     0.013 sec done=        84 (=100.0%) skipped=         0 
    -> L=0 1 2 3:     0.007 sec done=        56 (=100.0%) skipped=         0 
    -> L=0 1 3 3:     0.011 sec done=        28 (=100.0%) skipped=         0 
    -> L=0 2 0 2:     0.013 sec done=       121 (=100.0%) skipped=         0 
    -> L=0 2 0 3:     0.008 sec done=       121 (=100.0%) skipped=         0 
    -> L=0 2 1 1:     0.017 sec done=       165 (=100.0%) skipped=         0 
    -> L=0 2 1 2:     0.016 sec done=       110 (=100.0%) skipped=         0 
    -> L=0 2 1 3:     0.009 sec done=        55 (=100.0%) skipped=         0 
    -> L=0 2 2 2:     0.014 sec done=        33 (=100.0%) skipped=         0 
    -> L=0 2 2 3:     0.014 sec done=        22 (=100.0%) skipped=         0 
    -> L=0 2 3 3:     0.012 sec done=        11 (=100.0%) skipped=         0 
    -> L=0 3 0 3:     0.010 sec done=        36 (=100.0%) skipped=         0 
    -> L=0 3 1 1:     0.027 sec done=        90 (=100.0%) skipped=         0 
    -> L=0 3 1 2:     0.016 sec done=        60 (=100.0%) skipped=         0 
    -> L=0 3 1 3:     0.011 sec done=        30 (=100.0%) skipped=         0 
    -> L=0 3 2 2:     0.008 sec done=        18 (=100.0%) skipped=         0 
    -> L=0 3 2 3:     0.006 sec done=        12 (=100.0%) skipped=         0 
    -> L=0 3 3 3:     0.009 sec done=         6 (=100.0%) skipped=         0 
    -> L=1 1 1 1:     0.020 sec done=        64 (=100.0%) skipped=         0 
    -> L=1 1 1 2:     0.039 sec done=        80 (=100.0%) skipped=         0 
    -> L=1 1 1 3:     0.027 sec done=        40 (=100.0%) skipped=         0 
    -> L=1 1 2 2:     0.011 sec done=        24 (=100.0%) skipped=         0 
    -> L=1 1 2 3:     0.022 sec done=        16 (=100.0%) skipped=         0 
    -> L=1 1 3 3:     0.022 sec done=         8 (=100.0%) skipped=         0 
    -> L=1 2 1 2:     0.015 sec done=        25 (=100.0%) skipped=         0 
    -> L=1 2 1 3:     0.020 sec done=        25 (=100.0%) skipped=         0 
    -> L=1 2 2 2:     0.015 sec done=        15 (=100.0%) skipped=         0 
    -> L=1 2 2 3:     0.015 sec done=        10 (=100.0%) skipped=         0 
    -> L=1 2 3 3:     0.018 sec done=         5 (=100.0%) skipped=         0 
    -> L=1 3 1 3:     0.014 sec done=         9 (=100.0%) skipped=         0 
    -> L=1 3 2 2:     0.007 sec done=         9 (=100.0%) skipped=         0 
    -> L=1 3 2 3:     0.012 sec done=         6 (=100.0%) skipped=         0 
    -> L=1 3 3 3:     0.006 sec done=         3 (=100.0%) skipped=         0 
    -> L=2 2 2 2:     0.008 sec done=         4 (=100.0%) skipped=         0 
    -> L=2 2 2 3:     0.008 sec done=         4 (=100.0%) skipped=         0 
    -> L=2 2 3 3:     0.012 sec done=         2 (=100.0%) skipped=         0 
    -> L=2 3 2 3:     0.003 sec done=         1 (=100.0%) skipped=         0 
    -> L=2 3 3 3:     0.010 sec done=         1 (=100.0%) skipped=         0 
    -> L=3 3 3 3:     0.027 sec done=         1 (=100.0%) skipped=         0 
    ->Total LIBINT loop time =    0.756 sec
done   (      0.9 sec)
Exchange-correlation Hessian                     ... done   (      0.9 sec)
Dipole derivatives                               ... (center of mass:  0.030202, -1.165866  0.686004)done   (      0.1 sec)

-------
TIMINGS
-------

Total SCF Hessian time: 0 days 0 hours 0 min 4 sec 
                   F(y)            G[Q(x)]           CPSCF         Total
Table01         0.2  0.05         0.2  0.05         0.9  0.19         4.8 
Table01a        0.2  0.05,        0.2, 0.05,        0.9  0.19         4.8 
Table01b        0.2   4.5,        0.2,  5.2,        0.9  19.2         4.8 

Writing the Hessian file to the disk             ... done


Maximum memory used throughout the entire SCFHESS-calculation: 64.0 MB

-----------------------
VIBRATIONAL FREQUENCIES
-----------------------

Scaling factor for frequencies =  1.000000000  (already applied!)

   0:         0.00 cm**-1
   1:         0.00 cm**-1
   2:         0.00 cm**-1
   3:         0.00 cm**-1
   4:         0.00 cm**-1
   5:         0.00 cm**-1
   6:      1616.39 cm**-1
   7:      3780.24 cm**-1
   8:      3884.95 cm**-1


------------
NORMAL MODES
------------

These modes are the Cartesian displacements weighted by the diagonal matrix
M(i,i)=1/sqrt(m[i]) where m[i] is the mass of the displaced atom
Thus, these vectors are normalized but *not* orthogonal

                  0          1          2          3          4          5    
      0       0.000000   0.000000   0.000000   0.000000   0.000000   0.000000
      1       0.000000   0.000000   0.000000   0.000000   0.000000   0.000000
      2       0.000000   0.000000   0.000000   0.000000   0.000000   0.000000
      3       0.000000   0.000000   0.000000   0.000000   0.000000   0.000000
      4       0.000000   0.000000   0.000000   0.000000   0.000000   0.000000
      5       0.000000   0.000000   0.000000   0.000000   0.000000   0.000000
      6       0.000000   0.000000   0.000000   0.000000   0.000000   0.000000
      7       0.000000   0.000000   0.000000   0.000000   0.000000   0.000000
      8       0.000000   0.000000   0.000000   0.000000   0.000000   0.000000
                  6          7          8    
      0      -0.001073  -0.000744   0.006170
      1      -0.041112  -0.028343  -0.057522
      2       0.058159   0.040159  -0.040515
      3       0.045368  -0.045539  -0.042549
      4      -0.017159   0.704129   0.703905
      5      -0.703651   0.019409  -0.027875
      6      -0.028339   0.057343  -0.055389
      7       0.669694  -0.254265   0.209091
      8      -0.219444  -0.656808   0.670936


-----------
IR SPECTRUM
-----------

 Mode   freq       eps      Int      T**2         TX        TY        TZ
       cm**-1   L/(mol*cm) km/mol    a.u.
----------------------------------------------------------------------------
  6:   1616.39   0.015950   80.61  0.003079  ( 0.000857  0.032034 -0.045304)
  7:   3780.24   0.000829    4.19  0.000068  ( 0.000107  0.004754 -0.006768)
  8:   3884.95   0.008548   43.20  0.000687  (-0.002299  0.021335  0.015039)

* The epsilon (eps) is given for a Dirac delta lineshape.
** The dipole moment derivative (T) already includes vibrational overlap.

The first frequency considered to be a vibration is 6
The total number of vibrations considered is 3


--------------------------
THERMOCHEMISTRY AT 298.15K
--------------------------

Temperature         ... 298.15 K
Pressure            ... 1.00 atm
Total Mass          ... 18.02 AMU

Throughout the following assumptions are being made:
  (1) The electronic state is orbitally nondegenerate
  (2) There are no thermally accessible electronically excited states
  (3) Hindered rotations indicated by low frequency modes are not
      treated as such but are treated as vibrations and this may
      cause some error
  (4) All equations used are the standard statistical mechanics
      equations for an ideal gas
  (5) All vibrations are strictly harmonic

freq.    1616.39  E(vib)   ...       0.00 
freq.    3780.24  E(vib)   ...       0.00 
freq.    3884.95  E(vib)   ...       0.00 

------------
INNER ENERGY
------------

The inner energy is: U= E(el) + E(ZPE) + E(vib) + E(rot) + E(trans)
    E(el)   - is the total energy from the electronic structure calculation
              = E(kin-el) + E(nuc-el) + E(el-el) + E(nuc-nuc)
    E(ZPE)  - the the zero temperature vibrational energy from the frequency calculation
    E(vib)  - the the finite temperature correction to E(ZPE) due to population
              of excited vibrational states
    E(rot)  - is the rotational thermal energy
    E(trans)- is the translational thermal energy

Summary of contributions to the inner energy U:
Electronic energy                ...    -76.42605547 Eh
Zero point energy                ...      0.02114500 Eh      13.27 kcal/mol
Thermal vibrational correction   ...      0.00000302 Eh       0.00 kcal/mol
Thermal rotational correction    ...      0.00141627 Eh       0.89 kcal/mol
Thermal translational correction ...      0.00141627 Eh       0.89 kcal/mol
-----------------------------------------------------------------------
Total thermal energy                    -76.40207491 Eh


Summary of corrections to the electronic energy:
(perhaps to be used in another calculation)
Total thermal correction                  0.00283556 Eh       1.78 kcal/mol
Non-thermal (ZPE) correction              0.02114500 Eh      13.27 kcal/mol
-----------------------------------------------------------------------
Total correction                          0.02398056 Eh      15.05 kcal/mol


--------
ENTHALPY
--------

The enthalpy is H = U + kB*T
                kB is Boltzmann's constant
Total free energy                 ...    -76.40207491 Eh 
Thermal Enthalpy correction       ...      0.00094421 Eh       0.59 kcal/mol
-----------------------------------------------------------------------
Total Enthalpy                    ...    -76.40113070 Eh

The point group will now be determined using a tolerance of 1.0000e-04.

WARNING (ORCA_SYM): The standard basis set is uninitialized at this point.
The point group is determined without considering basis set information.

Splitting atom subsets according to nuclear charge, mass and basis set.
Splitting atom subsets according to distance from the molecule's center.
Identifying relative distance patterns of the atoms.
Splitting atom subsets according to atoms' relative distance patterns.
Bring atoms of each subset into input order.
The molecule is planar.
There is at least one atom subset not centered around the molecule's center.
The molecule does not have a center of inversion.
Analyzing the first atom subset for its symmetry.
Testing point group C2v.
Success!
This point group has been found:    C2v
Largest non-degenerate subgroup:    C2v


Mass-centered symmetry-perfected Cartesians (point group C2v):

Atom          Symmetry-perfected Cartesians (x, y, z; au)
  0       0.000000000000    0.000000000000    0.123623288547
  1       0.000000000000    1.446114731847   -0.981075889615
  2       0.000000000000   -1.446114731847   -0.981075889615


Note: Rotational entropy computed according to Herzberg 
Infrared and Raman Spectra, Chapter V,1, Van Nostrand Reinhold, 1945 
Point Group:  C2v, Symmetry Number:   2  
Rotational constants in cm-1:    27.552276    14.279027     9.404911 

Vibrational entropy computed according to the QRRHO of S. Grimme
Chem.Eur.J. 2012 18 9955


-------
ENTROPY
-------

The entropy contributions are T*S = T*(S(el)+S(vib)+S(rot)+S(trans))
     S(el)   - electronic entropy
     S(vib)  - vibrational entropy
     S(rot)  - rotational entropy
     S(trans)- translational entropy
The entropies will be listed as multiplied by the temperature to get
units of energy

Electronic entropy                ...      0.00000000 Eh      0.00 kcal/mol
Vibrational entropy               ...      0.00000341 Eh      0.00 kcal/mol
Rotational entropy                ...      0.00497761 Eh      3.12 kcal/mol
Translational entropy             ...      0.01644380 Eh     10.32 kcal/mol
-----------------------------------------------------------------------
Final entropy term                ...      0.02142482 Eh     13.44 kcal/mol

In case the symmetry of your molecule has not been determined correctly
or in case you have a reason to use a different symmetry number we print 
out the resulting rotational entropy values for sn=1,12 :
 --------------------------------------------------------
|  sn= 1 | S(rot)=       0.00563206 Eh      3.53 kcal/mol|
|  sn= 2 | S(rot)=       0.00497761 Eh      3.12 kcal/mol|
|  sn= 3 | S(rot)=       0.00459477 Eh      2.88 kcal/mol|
|  sn= 4 | S(rot)=       0.00432315 Eh      2.71 kcal/mol|
|  sn= 5 | S(rot)=       0.00411246 Eh      2.58 kcal/mol|
|  sn= 6 | S(rot)=       0.00394032 Eh      2.47 kcal/mol|
|  sn= 7 | S(rot)=       0.00379477 Eh      2.38 kcal/mol|
|  sn= 8 | S(rot)=       0.00366869 Eh      2.30 kcal/mol|
|  sn= 9 | S(rot)=       0.00355749 Eh      2.23 kcal/mol|
|  sn=10 | S(rot)=       0.00345801 Eh      2.17 kcal/mol|
|  sn=11 | S(rot)=       0.00336802 Eh      2.11 kcal/mol|
|  sn=12 | S(rot)=       0.00328586 Eh      2.06 kcal/mol|
 --------------------------------------------------------


-------------------
GIBBS FREE ENERGY
-------------------

The Gibbs free energy is G = H - T*S

Total enthalpy                    ...    -76.40113070 Eh 
Total entropy correction          ...     -0.02142482 Eh    -13.44 kcal/mol
-----------------------------------------------------------------------
Final Gibbs free energy         ...    -76.42255551 Eh

For completeness - the Gibbs free energy minus the electronic energy
G-E(el)                           ...      0.00349995 Eh      2.20 kcal/mol


Timings for individual modules:

Sum of individual times         ...       48.269 sec (=   0.804 min)
GTO integral calculation        ...        5.516 sec (=   0.092 min)  11.4 %
SCF iterations                  ...       27.209 sec (=   0.453 min)  56.4 %
SCF Gradient evaluation         ...       10.114 sec (=   0.169 min)  21.0 %
Geometry relaxation             ...        0.481 sec (=   0.008 min)   1.0 %
Analytical frequency calculation...        4.948 sec (=   0.082 min)  10.3 %
                             ****ORCA TERMINATED NORMALLY****
TOTAL RUN TIME: 0 days 0 hours 0 minutes 50 seconds 17 msec
