[Molden Format]
[Title]
 Molden file created by orca_2mkl for BaseName=Ethylene_MOs

[Atoms] AU
H    1   1          2.1687165704         0.1282721145         1.9729094501 
C    2   6          1.2538194619        -0.0083792794         0.1218669526 
H    3   1          2.5059579944        -0.1600611866        -1.5186959234 
C    4   6         -1.2538200060         0.0083799215        -0.1218572495 
H    5   1         -2.5059802013         0.1600608407         1.5186859279 
H    6   1         -2.1686938194        -0.1282724107        -1.9729091576 
[GTO]
  1 0
s   3 1.0 
       13.0107010000         0.1634903809
        1.9622572000         0.2773515510
        0.4445379600         0.3157501452
s   1 1.0 
        0.1219496200         0.1470772262
p   1 1.0 
        0.8000000000         1.0784563492

  2 0
s   5 1.0 
     1238.4016938000         0.8208956682
      186.2900499200         1.4766449896
       42.2511763460         2.1526124058
       11.6765579320         2.1081722461
        3.5930506482         0.8290999933
s   1 1.0 
        0.4024514736         0.3601183351
s   1 1.0 
        0.1309018267         0.1551027052
p   3 1.0 
        9.4680970621         1.3467645142
        2.0103545142         1.0678070931
        0.5477100471         0.5108735714
p   1 1.0 
        0.1526861379         0.1360471976
d   1 1.0 
        0.8000000000         1.9292013661

  3 0
s   3 1.0 
       13.0107010000         0.1634903809
        1.9622572000         0.2773515510
        0.4445379600         0.3157501452
s   1 1.0 
        0.1219496200         0.1470772262
p   1 1.0 
        0.8000000000         1.0784563492

  4 0
s   5 1.0 
     1238.4016938000         0.8208956682
      186.2900499200         1.4766449896
       42.2511763460         2.1526124058
       11.6765579320         2.1081722461
        3.5930506482         0.8290999933
s   1 1.0 
        0.4024514736         0.3601183351
s   1 1.0 
        0.1309018267         0.1551027052
p   3 1.0 
        9.4680970621         1.3467645142
        2.0103545142         1.0678070931
        0.5477100471         0.5108735714
p   1 1.0 
        0.1526861379         0.1360471976
d   1 1.0 
        0.8000000000         1.9292013661

  5 0
s   3 1.0 
       13.0107010000         0.1634903809
        1.9622572000         0.2773515510
        0.4445379600         0.3157501452
s   1 1.0 
        0.1219496200         0.1470772262
p   1 1.0 
        0.8000000000         1.0784563492

  6 0
s   3 1.0 
       13.0107010000         0.1634903809
        1.9622572000         0.2773515510
        0.4445379600         0.3157501452
s   1 1.0 
        0.1219496200         0.1470772262
p   1 1.0 
        0.8000000000         1.0784563492

[5D]
[7F]
[9G]
[MO]
 Sym=     1a
 Ene= -1.01870655245497E+01
 Spin= Alpha
 Occup= 2.000000
  1      -0.002852067522
  2       0.004539577111
  3       0.000378008670
  4       0.000131926408
  5       0.001698126493
  6       0.699208116965
  7       0.030289518610
  8      -0.015706688357
  9       0.002485275251
 10      -0.000016005485
 11       0.000238731048
 12      -0.000495435441
 13       0.000002134299
 14      -0.000026843184
 15       0.000991511428
 16      -0.000097173380
 17       0.000201516040
 18       0.000724276744
 19      -0.000029022803
 20      -0.002846353465
 21       0.004557491862
 22       0.000693976172
 23      -0.000139689453
 24      -0.001595137637
 25       0.699043706988
 26       0.030280737124
 27      -0.015698999369
 28      -0.002485654392
 29       0.000016007432
 30      -0.000238782032
 31       0.000496122968
 32      -0.000002134175
 33       0.000026974009
 34       0.000991302352
 35      -0.000097232615
 36       0.000201435357
 37       0.000723639212
 38      -0.000029009004
 39      -0.002845604596
 40       0.004556138951
 41      -0.000693615023
 42       0.000139647238
 43       0.001594677938
 44      -0.002851257730
 45       0.004538265954
 46      -0.000377688511
 47      -0.000131888204
 48      -0.001697601546
 Sym=     1a
 Ene= -1.01863761842182E+01
 Spin= Alpha
 Occup= 2.000000
  1       0.003347198387
  2      -0.005690411046
  3      -0.001241533377
  4      -0.000161544539
  5      -0.002213779935
  6      -0.698340720950
  7      -0.037372849430
  8       0.032751913323
  9       0.001600196731
 10      -0.000011297790
 11       0.000158683600
 12      -0.002936885863
 13       0.000020579017
 14      -0.000291626544
 15      -0.000852068649
 16      -0.000126370191
 17      -0.000343187405
 18      -0.002746388111
 19       0.000069897508
 20       0.003347504635
 21      -0.005698702065
 22      -0.001640714977
 23       0.000181570066
 24       0.001935112558
 25       0.698505292241
 26       0.037380003879
 27      -0.032755642921
 28       0.001599599046
 29      -0.000011295312
 30       0.000158607087
 31      -0.002936753522
 32       0.000020572451
 33      -0.000291693598
 34       0.000852289284
 35       0.000126276460
 36       0.000343234840
 37       0.002746569601
 38      -0.000069910879
 39      -0.003348190497
 40       0.005699832528
 41      -0.001640899777
 42       0.000181603503
 43       0.001935488050
 44      -0.003347877897
 45       0.005691454757
 46      -0.001241602715
 47      -0.000161575324
 48      -0.002214176468
 Sym=     1a
 Ene= -7.47885282775846E-01
 Spin= Alpha
 Occup= 2.000000
  1       0.106302274756
  2       0.015276488464
  3      -0.008247691253
  4      -0.000945264427
  5      -0.013134694311
  6      -0.203184466602
  7       0.389925976525
  8       0.107532673957
  9      -0.113761730373
 10       0.000750855532
 11      -0.011046759268
 12      -0.020705049290
 13       0.000148887000
 14      -0.002094200288
 15      -0.005553179684
 16       0.002148455478
 17       0.000185230541
 18       0.012252413614
 19      -0.000185373322
 20       0.106285226547
 21       0.015194856488
 22      -0.010602490700
 23       0.001073260312
 24       0.011304049665
 25      -0.203184676287
 26       0.389926207019
 27       0.107532755682
 28       0.113761587648
 29      -0.000750933396
 30       0.011045617906
 31       0.020705121714
 32      -0.000148887171
 33       0.002094256573
 34      -0.005553200092
 35       0.002148352413
 36       0.000185229980
 37       0.012252402983
 38      -0.000185378273
 39       0.106284758835
 40       0.015194752923
 41       0.010602540050
 42      -0.001073243261
 43      -0.011303940352
 44       0.106303474382
 45       0.015276754299
 46       0.008247699952
 47       0.000945291375
 48       0.013134903541
 Sym=     1a
 Ene= -5.68727883825130E-01
 Spin= Alpha
 Occup= 2.000000
  1       0.190207637381
  2       0.046197715563
  3      -0.003671187865
  4      -0.001231590867
  5      -0.015839854489
  6      -0.156077845333
  7       0.318453929102
  8       0.088969564551
  9       0.164513499059
 10      -0.001128005933
 11       0.016003666138
 12       0.064185357525
 13      -0.000426421841
 14       0.006198751193
 15       0.008610598610
 16      -0.001853159996
 17       0.000916279307
 18      -0.004042701514
 19      -0.000035576183
 20       0.190183506567
 21       0.046129759536
 22      -0.006625828419
 23       0.001302520535
 24       0.014840275528
 25       0.156077569152
 26      -0.318453206888
 27      -0.088969078828
 28       0.164514782506
 29      -0.001128023464
 30       0.016003731250
 31       0.064185437063
 32      -0.000426400334
 33       0.006199195075
 34      -0.008610601185
 35       0.001853274821
 36      -0.000916279497
 37       0.004042699694
 38       0.000035587820
 39      -0.190185378817
 40      -0.046130405754
 41      -0.006626178632
 42       0.001302543402
 43       0.014840275107
 44      -0.190206716440
 45      -0.046197360512
 46      -0.003670822122
 47      -0.001231586464
 48      -0.015839879463
 Sym=     1a
 Ene= -4.63262969607851E-01
 Spin= Alpha
 Occup= 2.000000
  1      -0.201154276636
  2      -0.065203166219
  3       0.008501608350
  4       0.000329184322
  5       0.005614623835
  6      -0.000000612909
  7      -0.000001797915
  8       0.000086076474
  9       0.031378219134
 10      -0.026826379357
 11      -0.324763635055
 12       0.010785322787
 13      -0.009230691192
 14      -0.111845620917
 15       0.000180564616
 16       0.001064667056
 17       0.000006407404
 18      -0.000101481795
 19       0.000090667913
 20       0.201162462400
 21       0.065174870154
 22      -0.009414969030
 23       0.000453411613
 24       0.003873217925
 25       0.000001641583
 26      -0.000000219071
 27      -0.000088231608
 28       0.031386779928
 29      -0.026826482199
 30      -0.324763249850
 31       0.010787763420
 32      -0.009230724723
 33      -0.111845394362
 34      -0.000180380123
 35      -0.001064623161
 36      -0.000006393325
 37       0.000101407073
 38      -0.000090660941
 39      -0.201165510555
 40      -0.065175747595
 41      -0.009414981525
 42       0.000453445827
 43       0.003873330713
 44       0.201151844021
 45       0.065202499145
 46       0.008501572034
 47       0.000329183051
 48       0.005614473349
 Sym=     1a
 Ene= -4.17990504917687E-01
 Spin= Alpha
 Occup= 2.000000
  1       0.166623073413
  2       0.068732982065
  3       0.005785585173
  4      -0.000792492202
  5      -0.008724127181
  6       0.014636380238
  7      -0.033886882719
  8       0.007088607864
  9       0.412194203018
 10      -0.002775315352
 11       0.040094679945
 12       0.130600079722
 13      -0.000867940905
 14       0.012660158850
 15       0.012686582610
 16      -0.002668421433
 17       0.001394121529
 18      -0.005378163948
 19      -0.000065330323
 20       0.166544640187
 21       0.068641877610
 22       0.004013958257
 23       0.000726680105
 24       0.009676627454
 25       0.014636807202
 26      -0.033887845909
 27       0.007087999093
 28      -0.412192988498
 29       0.002774715140
 30      -0.040102785521
 31      -0.130599399379
 32       0.000867685507
 33      -0.012663393253
 34       0.012686501579
 35      -0.002668696351
 36       0.001394125869
 37      -0.005378102210
 38      -0.000065348362
 39       0.166541929718
 40       0.068640791298
 41      -0.004013990862
 42      -0.000726665793
 43      -0.009676648108
 44       0.166624874762
 45       0.068733738158
 46      -0.005785579578
 47       0.000792508590
 48       0.008724049022
 Sym=     1a
 Ene= -3.51484958130420E-01
 Spin= Alpha
 Occup= 2.000000
  1      -0.268455564754
  2      -0.161906819254
  3       0.007278144887
  4       0.000297131547
  5       0.005000971308
  6       0.000007451002
  7      -0.000038265568
  8       0.000075223963
  9       0.029343795614
 10      -0.025029260381
 11      -0.303037150133
 12       0.005523372269
 13      -0.004676166843
 14      -0.056774477819
 15      -0.004271606754
 16      -0.025145613788
 17      -0.000027840182
 18       0.002438743509
 19      -0.002112076922
 20       0.268507437637
 21       0.161861690441
 22      -0.008096293218
 23       0.000405062657
 24       0.003508842029
 25       0.000008085849
 26      -0.000039846843
 27       0.000081399474
 28      -0.029344947347
 29       0.025029294687
 30       0.303036868820
 31      -0.005518957918
 32       0.004676132695
 33       0.056774674340
 34      -0.004272035564
 35      -0.025145557659
 36      -0.000027875489
 37       0.002439098356
 38      -0.002112071527
 39       0.268505735966
 40       0.161861138104
 41       0.008096360766
 42      -0.000405015156
 43      -0.003508555420
 44      -0.268456911337
 45      -0.161907321009
 46      -0.007278141988
 47      -0.000297113920
 48      -0.005001148338
 Sym=     1a
 Ene= -2.72540590029011E-01
 Spin= Alpha
 Occup= 2.000000
  1      -0.000021846369
  2      -0.000033295218
  3       0.000182677711
  4       0.012331719120
  5      -0.000999124539
  6      -0.000017721228
  7       0.000040511859
  8       0.000085894927
  9       0.005981392650
 10       0.409130760925
 11      -0.033208701273
 12       0.003994604536
 13       0.273759292268
 14      -0.022199597803
 15       0.000260215986
 16       0.001522412682
 17      -0.001863712221
 18      -0.000402496995
 19      -0.019088068984
 20      -0.000009585334
 21       0.000006364142
 22       0.000180561344
 23       0.012332270988
 24      -0.001001888406
 25       0.000017729143
 26      -0.000040526789
 27      -0.000085917574
 28       0.005981471862
 29       0.409130714687
 30      -0.033208728020
 31       0.003994639547
 32       0.273759315961
 33      -0.022199599336
 34      -0.000260204555
 35      -0.001522406404
 36       0.001863633115
 37       0.000402502442
 38       0.019088065139
 39       0.000009541010
 40      -0.000006400919
 41       0.000180553160
 42       0.012332266360
 43      -0.001001892470
 44       0.000021858412
 45       0.000033309497
 46       0.000182685805
 47       0.012331753438
 48      -0.000999141391
 Sym=     1a
 Ene= 8.70550774031784E-03
 Spin= Alpha
 Occup= 0.000000
  1      -0.000043793609
  2      -0.000104229776
  3       0.000302790916
  4       0.020686413160
  5      -0.001677747421
  6      -0.000018661372
  7       0.000033266884
  8       0.000245755501
  9       0.006232764941
 10       0.423264283516
 11      -0.034347134090
 12       0.009420460875
 13       0.639110369339
 14      -0.051896028286
 15      -0.000306251678
 16      -0.001782310244
 17       0.002184756790
 18       0.000476601325
 19       0.022335728129
 20      -0.000049810111
 21      -0.000145911438
 22       0.000303605250
 23       0.020685502631
 24      -0.001680479418
 25      -0.000018683076
 26       0.000033305840
 27       0.000245989334
 28      -0.006232793156
 29      -0.423264258793
 30       0.034347146566
 31      -0.009420518026
 32      -0.639110355492
 33       0.051896044872
 34      -0.000306258675
 35      -0.001782308503
 36       0.002184820192
 37       0.000476598612
 38       0.022335748270
 39      -0.000049861886
 40      -0.000146039288
 41      -0.000303613885
 42      -0.020685670415
 43       0.001680492888
 44      -0.000043821713
 45      -0.000104321173
 46      -0.000302794230
 47      -0.020686286700
 48       0.001677733342
 Sym=     1a
 Ene= 8.53680877440592E-02
 Spin= Alpha
 Occup= 0.000000
  1       0.039731296201
  2       1.027736767332
  3      -0.004381143013
  4       0.000706062395
  5       0.007879628620
  6       0.087451729257
  7      -0.192983112479
  8      -1.418604925018
  9      -0.165146030461
 10       0.001191356826
 11      -0.016040085125
 12      -0.517108453792
 13       0.003703492776
 14      -0.050119439137
 15       0.007642514224
 16      -0.001556100596
 17       0.000885839391
 18      -0.002666152594
 19      -0.000042089362
 20       0.039738361233
 21       1.027962822872
 22      -0.002795486060
 23      -0.000652637383
 24      -0.008577885380
 25       0.087451041354
 26      -0.192981631423
 27      -1.418597223041
 28       0.165144095039
 29      -0.001190374655
 30       0.016052217633
 31       0.517106308775
 32      -0.003700991872
 33       0.050150887425
 34       0.007642626069
 35      -0.001555302921
 36       0.000885834499
 37      -0.002666275011
 38      -0.000042020207
 39       0.039733669613
 40       1.027923966539
 41       0.002795608487
 42       0.000652626668
 43       0.008577734720
 44       0.039734317168
 45       1.027768629762
 46       0.004381007261
 47      -0.000706062213
 48      -0.007879666790
 Sym=     1a
 Ene= 1.04726560504241E-01
 Spin= Alpha
 Occup= 0.000000
  1       0.080620381087
  2       1.043677256667
  3       0.005531885496
  4       0.000148961474
  5       0.002834953204
  6      -0.000006767048
  7       0.000005357507
  8       0.000308611680
  9       0.026354373142
 10      -0.022516483962
 11      -0.272606441503
 12       0.064681799833
 13      -0.055315978087
 14      -0.670021089092
 15       0.003756478929
 16       0.022104762005
 17       0.000031738221
 18      -0.002142123196
 19       0.001858111337
 20      -0.080634548812
 21      -1.043944780893
 22      -0.005970057029
 23       0.000227859161
 24       0.001717379283
 25       0.000010017978
 26      -0.000012494013
 27      -0.000371757121
 28       0.026364617608
 29      -0.022516498476
 30      -0.272604527422
 31       0.064711725387
 32      -0.055316073596
 33      -0.670016079027
 34      -0.003756448861
 35      -0.022104779457
 36      -0.000031714497
 37       0.002142331010
 38      -0.001858118329
 39       0.080636188197
 40       1.043987480846
 41      -0.005970056197
 42       0.000227868589
 43       0.001717554668
 44      -0.080618697781
 45      -1.043632194799
 46       0.005531899823
 47       0.000148939234
 48       0.002834764829
 Sym=     1a
 Ene= 1.16507656523126E-01
 Spin= Alpha
 Occup= 0.000000
  1      -0.045513666611
  2      -1.143223155305
  3      -0.005109052654
  4      -0.000303174970
  5      -0.004647896646
  6      -0.111900386968
  7       0.210726974548
  8       2.070748798468
  9       0.103259405920
 10      -0.000743393303
 11       0.010087619389
 12       0.135599834782
 13      -0.000995851851
 14       0.013244332501
 15       0.003571864509
 16      -0.000974945870
 17       0.000216345309
 18      -0.003729766428
 19       0.000029713641
 20      -0.045474858300
 21      -1.142934759743
 22      -0.005896262387
 23       0.000377403760
 24       0.003579889936
 25       0.111900709054
 26      -0.210727602239
 27      -2.070759642283
 28       0.103260269042
 29      -0.000743686245
 30       0.010085197057
 31       0.135604792580
 32      -0.000997181350
 33       0.013231103366
 34      -0.003571857008
 35       0.000975188558
 36      -0.000216352895
 37       0.003729711766
 38      -0.000029686508
 39       0.045474600032
 40       1.142958409144
 41      -0.005896215006
 42       0.000377398941
 43       0.003579901596
 44       0.045513086115
 45       1.143214217605
 46      -0.005109130604
 47      -0.000303174074
 48      -0.004647854433
 Sym=     1a
 Ene= 1.87302821580379E-01
 Spin= Alpha
 Occup= 0.000000
  1       0.013393681617
  2      -1.503846426270
  3       0.001938115814
  4       0.000025352899
  5       0.000619718567
  6      -0.000008638741
  7       0.000034755800
  8       0.000121882800
  9      -0.025742619187
 10       0.022024533375
 11       0.266644801892
 12      -0.134015895094
 13       0.114619543395
 14       1.387976057485
 15       0.002653725037
 16       0.015611326581
 17       0.000020664287
 18      -0.001515615043
 19       0.001310920326
 20      -0.013392553224
 21       1.503651612923
 22      -0.002023234363
 23       0.000045327306
 24       0.000236032438
 25      -0.000009666261
 26       0.000035629576
 27       0.000195960310
 28       0.025741548008
 29      -0.022024567004
 30      -0.266645369146
 31       0.134044282472
 32      -0.114619904063
 33      -1.387975010878
 34       0.002653964792
 35       0.015611310755
 36       0.000020700993
 37      -0.001515535456
 38       0.001310917127
 39      -0.013393293226
 40       1.503634474818
 41       0.002023129491
 42      -0.000045334359
 43      -0.000236150733
 44       0.013393128310
 45      -1.503872838899
 46      -0.001938279203
 47      -0.000025340102
 48      -0.000619619048
 Sym=     1a
 Ene= 3.27592091082494E-01
 Spin= Alpha
 Occup= 0.000000
  1      -0.126372047226
  2      -0.220975447869
  3       0.015868344593
  4      -0.001347527205
  5      -0.013765813429
  6       0.065441020120
  7      -0.127544114606
  8      -4.818891411091
  9       0.219929329829
 10      -0.001479612705
 11       0.021343809562
 12       3.261153953585
 13      -0.021831870501
 14       0.316994948159
 15      -0.028196698200
 16       0.006485973814
 17      -0.002669430759
 18       0.017337305329
 19       0.000028243822
 20      -0.126526207787
 21      -0.220667907431
 22       0.012916201470
 23       0.001156303160
 24       0.016559202842
 25      -0.065440969521
 26       0.127543392479
 27       4.818890909708
 28       0.219928895270
 29      -0.001479313655
 30       0.021347619889
 31       3.261153145142
 32      -0.021831568803
 33       0.316999493700
 34       0.028196519123
 35      -0.006485993566
 36       0.002669398610
 37      -0.017337428957
 38      -0.000028239235
 39       0.126519217501
 40       0.220682907158
 41       0.012916757065
 42       0.001156323572
 43       0.016559565960
 44       0.126375519436
 45       0.220964589931
 46       0.015867644049
 47      -0.001347487302
 48      -0.013765488858
 Sym=     1a
 Ene= 3.98944700196341E-01
 Spin= Alpha
 Occup= 0.000000
  1      -0.031173702762
  2       0.144261001879
  3       0.038317137146
  4      -0.000552237581
  5       0.000033757347
  6      -0.083841303920
  7       0.735177591975
  8      -0.587661320229
  9      -0.398991245571
 10       0.002697077193
 11      -0.038756919016
 12       0.776326635249
 13      -0.005227737887
 14       0.075310809636
 15      -0.018597117974
 16       0.007775133786
 17       0.001084333014
 18       0.046889061368
 19      -0.000736160558
 20      -0.031295040204
 21       0.144352957042
 22       0.037605515123
 23       0.000051519576
 24       0.007338017068
 25      -0.083841397921
 26       0.735178716248
 27      -0.587666710901
 28       0.398989896169
 29      -0.002696323103
 30       0.038765721700
 31      -0.776325241414
 32       0.005225021722
 33      -0.075343717268
 34      -0.018598303606
 35       0.007767699779
 36       0.001084341666
 37       0.046889841674
 38      -0.000736788748
 39      -0.031245165081
 40       0.144317443643
 41      -0.037610120961
 42      -0.000051552511
 43      -0.007339262787
 44      -0.031222412370
 45       0.144295323088
 46      -0.038312384564
 47       0.000552138400
 48      -0.000034139787
 Sym=     1a
 Ene= 4.34030771169077E-01
 Spin= Alpha
 Occup= 0.000000
  1       0.575384281265
  2      -0.262471738257
  3       0.052141421298
  4      -0.000753648926
  5       0.000115916423
  6      -0.000025989853
  7       0.000176496889
  8       0.000070398135
  9      -0.004245211471
 10       0.003878935712
 11       0.044078463917
 12       0.040388299169
 13      -0.035215395710
 14      -0.423994530576
 15       0.016870478192
 16       0.099208749625
 17       0.000114187279
 18      -0.009622459357
 19       0.008320397267
 20      -0.575206584819
 21       0.262770720012
 22      -0.051221017424
 23      -0.000048920144
 24      -0.009938929403
 25       0.000022704337
 26      -0.000147991900
 27      -0.000282990534
 28      -0.004296021502
 29       0.003879346009
 30       0.044074447624
 31       0.040581060479
 32      -0.035217250279
 33      -0.423981794205
 34      -0.016860528621
 35      -0.099210350877
 36      -0.000112630833
 37       0.009623741278
 38      -0.008320569806
 39       0.575288660362
 40      -0.262724849704
 41      -0.051213814819
 42      -0.000048705834
 43      -0.009934914242
 44      -0.575302531746
 45       0.262511524006
 46       0.052149091684
 47      -0.000753964760
 48       0.000113637558
 Sym=     1a
 Ene= 4.44739158412131E-01
 Spin= Alpha
 Occup= 0.000000
  1       0.493772391379
  2       0.356149052526
  3      -0.019090915923
  4       0.001490966675
  5       0.014816455379
  6      -0.070930628888
  7       0.622916519508
  8      -1.668943777506
  9       0.101231831583
 10      -0.000736158209
 11       0.009883402397
 12      -0.718413321931
 13       0.005167382038
 14      -0.069966363944
 15       0.062678423194
 16      -0.007126592443
 17       0.011849372641
 18       0.035150594265
 19      -0.001623523061
 20       0.493924246711
 21       0.355808083568
 22      -0.015878552069
 23      -0.001235280422
 24      -0.018213828286
 25      -0.070930921772
 26       0.622916083026
 27      -1.668916969590
 28      -0.101230234779
 29       0.000735483636
 30      -0.009889667458
 31       0.718425791961
 32      -0.005161357745
 33       0.070042367036
 34       0.062680846158
 35      -0.007111412855
 36       0.011849354555
 37       0.035148942636
 38      -0.001622262333
 39       0.493828805051
 40       0.355857842925
 41       0.015886738717
 42       0.001235311421
 43       0.018215719780
 44       0.493863586099
 45       0.356109402373
 46       0.019082377537
 47      -0.001490848463
 48      -0.014816325268
 Sym=     1a
 Ene= 4.91036159600257E-01
 Spin= Alpha
 Occup= 0.000000
  1       0.000221682598
  2      -0.000042416953
  3      -0.000062412996
  4      -0.005737263531
  5       0.000465422561
  6       0.000009427449
  7       0.000016012917
  8      -0.000401605701
  9      -0.010071008084
 10      -0.690034929775
 11       0.055955829566
 12       0.009018445702
 13       0.620659105614
 14      -0.050371972850
 15      -0.000693697377
 16      -0.004048667516
 17       0.005013344073
 18       0.001083495304
 19       0.051329875241
 20      -0.000200663813
 21       0.000408126338
 22      -0.000111670262
 23      -0.005731060143
 24       0.000472861382
 25      -0.000009433004
 26      -0.000016042731
 27       0.000401871055
 28      -0.010071041003
 29      -0.690034796208
 30       0.055955831608
 31       0.009018344395
 32       0.620659076243
 33      -0.050371999498
 34       0.000693681715
 35       0.004048669040
 36      -0.005013340064
 37      -0.001083502772
 38      -0.051329880621
 39       0.000200565905
 40      -0.000408224322
 41      -0.000111680386
 42      -0.005731277689
 43       0.000472876963
 44      -0.000221788957
 45       0.000042350588
 46      -0.000062419189
 47      -0.005737289516
 48       0.000465426349
 Sym=     1a
 Ene= 5.49446854639929E-01
 Spin= Alpha
 Occup= 0.000000
  1       0.624432643168
  2       0.008786731652
  3      -0.002987895783
  4       0.003389542921
  5       0.041162268115
  6       0.045136612299
  7       0.223815286173
  8      -2.921877068732
  9       0.173966853684
 10      -0.001141965278
 11       0.016980129331
 12       0.586110238966
 13      -0.003849986072
 14       0.056893122405
 15       0.057683870244
 16      -0.003613765526
 17       0.013304405641
 18       0.062265963560
 19      -0.002148482849
 20       0.624595173374
 21       0.008499398779
 22       0.004960797114
 23      -0.003393480200
 24      -0.040983484382
 25      -0.045135613507
 26      -0.223821681442
 27       2.921899496446
 28       0.173968689442
 29      -0.001140745799
 30       0.016993874507
 31       0.586104387883
 32      -0.003853641314
 33       0.056846961885
 34      -0.057683505834
 35       0.003615670734
 36      -0.013304407717
 37      -0.062266197288
 38       0.002148645016
 39      -0.624598005856
 40      -0.008484065886
 41       0.004963359395
 42      -0.003393525344
 43      -0.040983847440
 44      -0.624429252182
 45      -0.008822573924
 46      -0.002990729982
 47       0.003389498774
 48       0.041161106210
 Sym=     1a
 Ene= 5.77135439770534E-01
 Spin= Alpha
 Occup= 0.000000
  1       0.000141899101
  2      -0.000146417473
  3       0.000205963966
  4       0.014174975653
  5      -0.001124162132
  6       0.000027318504
  7      -0.000178577001
  8       0.000461977268
  9       0.010786078669
 10       0.744630578673
 11      -0.060362445766
 12      -0.016568221106
 13      -1.144143440127
 14       0.092590466578
 15      -0.000228847801
 16      -0.001520106302
 17       0.001860253497
 18       0.000414615832
 19       0.018931373174
 20       0.000175033221
 21      -0.000486867388
 22       0.000232738908
 23       0.014169760460
 24      -0.001189071160
 25       0.000027261829
 26      -0.000178306325
 27       0.000461596453
 28      -0.010786121153
 29      -0.744630653671
 30       0.060362468432
 31       0.016568265442
 32       1.144143556138
 33      -0.092590483533
 34      -0.000228869269
 35      -0.001520101313
 36       0.001860298310
 37       0.000414598010
 38       0.018931373654
 39       0.000174884659
 40      -0.000486707462
 41      -0.000232731365
 42      -0.014169325189
 43       0.001189021024
 44       0.000141771105
 45      -0.000146264382
 46      -0.000205976250
 47      -0.014175662726
 48       0.001124235919
 Sym=     1a
 Ene= 6.47086002406419E-01
 Spin= Alpha
 Occup= 0.000000
  1      -0.411733502693
  2       1.034204048539
  3      -0.018229368609
  4      -0.007737287244
  5      -0.098690409157
  6      -0.162602115022
  7       0.926814031384
  8      -1.981915347435
  9       0.399043238474
 10      -0.002498846261
 11       0.038950115140
 12      -0.623032081792
 13       0.003883584097
 14      -0.061344853597
 15      -0.074378810242
 16       0.009766761343
 17      -0.012977797350
 18      -0.028215392407
 19       0.001637365542
 20      -0.411744606309
 21       1.033288019615
 22      -0.036711426259
 23       0.008120981726
 24       0.093314773109
 25      -0.162597507680
 26       0.926779443619
 27      -1.981788642091
 28      -0.399033638708
 29       0.002497119786
 30      -0.038970538706
 31       0.623030426836
 32      -0.003880782590
 33       0.061380403503
 34      -0.074378582454
 35       0.009764924130
 36      -0.012977734279
 37      -0.028215283068
 38       0.001637233592
 39      -0.411738859693
 40       1.033232301853
 41       0.036710317364
 42      -0.008120723272
 43      -0.093311471126
 44      -0.411737594909
 45       1.034194754339
 46       0.018228164977
 47       0.007737370696
 48       0.098691258178
 Sym=     1a
 Ene= 6.71455995072320E-01
 Spin= Alpha
 Occup= 0.000000
  1      -0.186428693835
  2       1.341723908704
  3      -0.036060570190
  4      -0.006013435470
  5      -0.080659782943
  6      -0.207815247686
  7       1.411054209388
  8      -4.976878740354
  9       0.246376619385
 10      -0.001476242837
 11       0.026370123885
 12       0.153607025891
 13      -0.001248587131
 14       0.010408534240
 15      -0.038470909975
 16       0.003482367852
 17      -0.007657510695
 18      -0.026471616275
 19       0.001060964805
 20      -0.185190575462